propane                                                                 
Freq      RPBEPBE                                                     6-31+G(d)           
Number of atoms                            I               11
Info1-9                                    I   N=           9
          22          22        1002           0           0         100
           6          18         902
Full Title                                 C   N=           1
propane     
Route                                      C   N=           7
#Opt Freq PBEPBE EmpiricalDispersion=GD3BJ 6-31+G(D) pop=(CM
5, ESP, NBOREAD)        
Charge                                     I                0
Multiplicity                               I                1
Number of electrons                        I               26
Number of alpha electrons                  I               13
Number of beta electrons                   I               13
Number of basis functions                  I               73
Number of independent functions            I               73
Number of point charges in /Mol/           I                0
Number of translation vectors              I                0
Atomic numbers                             I   N=          11
           6           6           1           1           1           6
           1           1           1           1           1
Nuclear charges                            R   N=          11
  6.00000000E+00  6.00000000E+00  1.00000000E+00  1.00000000E+00  1.00000000E+00
  6.00000000E+00  1.00000000E+00  1.00000000E+00  1.00000000E+00  1.00000000E+00
  1.00000000E+00
Current cartesian coordinates              R   N=          33
 -2.41319622E+00 -4.91994565E-01  1.17500277E-04  1.48848796E-05  1.11267916E+00
  1.17000914E-04 -4.12965675E+00  6.95127712E-01  3.69758032E-04 -2.49452874E+00
 -1.72588526E+00 -1.68387173E+00 -2.49428480E+00 -1.72622898E+00  1.68386581E+00
  2.41317110E+00 -4.91994610E-01 -2.24153052E-04 -1.14781899E-04  2.37111123E+00
 -1.67099228E+00  1.11243038E-04  2.37073567E+00  1.67150680E+00  4.12967575E+00
  6.95089070E-01 -3.27269255E-04  2.49459779E+00 -1.72614597E+00  1.68356934E+00
  2.49426172E+00 -1.72594335E+00 -1.68418251E+00
Number of symbols in /Mol/                 I                0
Force Field                                I                0
Atom Types                                 C   N=          11
                                                            
                                                            
            
Int Atom Types                             I   N=          11
           0           0           0           0           0           0
           0           0           0           0           0
MM charges                                 R   N=          11
  0.00000000E+00  0.00000000E+00  0.00000000E+00  0.00000000E+00  0.00000000E+00
  0.00000000E+00  0.00000000E+00  0.00000000E+00  0.00000000E+00  0.00000000E+00
  0.00000000E+00
Integer atomic weights                     I   N=          11
          12          12           1           1           1          12
           1           1           1           1           1
Real atomic weights                        R   N=          11
  1.20000000E+01  1.20000000E+01  1.00782504E+00  1.00782504E+00  1.00782504E+00
  1.20000000E+01  1.00782504E+00  1.00782504E+00  1.00782504E+00  1.00782504E+00
  1.00782504E+00
Atom fragment info                         I   N=          11
           0           0           0           0           0           0
           0           0           0           0           0
Atom residue num                           I   N=          11
           0           0           0           0           0           0
           0           0           0           0           0
Nuclear spins                              I   N=          11
           0           0           1           1           1           0
           1           1           1           1           1
Nuclear ZEff                               R   N=          11
 -3.60000000E+00 -3.60000000E+00 -1.00000000E+00 -1.00000000E+00 -1.00000000E+00
 -3.60000000E+00 -1.00000000E+00 -1.00000000E+00 -1.00000000E+00 -1.00000000E+00
 -1.00000000E+00
Nuclear ZNuc                               R   N=          11
  6.00000000E+00  6.00000000E+00  1.00000000E+00  1.00000000E+00  1.00000000E+00
  6.00000000E+00  1.00000000E+00  1.00000000E+00  1.00000000E+00  1.00000000E+00
  1.00000000E+00
Nuclear QMom                               R   N=          11
  0.00000000E+00  0.00000000E+00  0.00000000E+00  0.00000000E+00  0.00000000E+00
  0.00000000E+00  0.00000000E+00  0.00000000E+00  0.00000000E+00  0.00000000E+00
  0.00000000E+00
Nuclear GFac                               R   N=          11
  0.00000000E+00  0.00000000E+00  2.79284600E+00  2.79284600E+00  2.79284600E+00
  0.00000000E+00  2.79284600E+00  2.79284600E+00  2.79284600E+00  2.79284600E+00
  2.79284600E+00
MicOpt                                     I   N=          11
          -1          -1          -1          -1          -1          -1
          -1          -1          -1          -1          -1
Number of residues                         I                0
Number of secondary structures             I                0
Redundant internal dimensions              I   N=           4
          46          10          18          18
Redundant internal coordinate indices      I   N=         184
           1           2           0           0           1           3
           0           0           1           4           0           0
           1           5           0           0           2           6
           0           0           2           7           0           0
           2           8           0           0           6           9
           0           0           6          10           0           0
           6          11           0           0           2           1
           3           0           2           1           4           0
           2           1           5           0           3           1
           4           0           3           1           5           0
           4           1           5           0           1           2
           6           0           1           2           7           0
           1           2           8           0           6           2
           7           0           6           2           8           0
           7           2           8           0           2           6
           9           0           2           6          10           0
           2           6          11           0           9           6
          10           0           9           6          11           0
          10           6          11           0           3           1
           2           6           3           1           2           7
           3           1           2           8           4           1
           2           6           4           1           2           7
           4           1           2           8           5           1
           2           6           5           1           2           7
           5           1           2           8           1           2
           6           9           1           2           6          10
           1           2           6          11           7           2
           6           9           7           2           6          10
           7           2           6          11           8           2
           6           9           8           2           6          10
           8           2           6          11
Redundant internal coordinates             R   N=          46
  2.89802788E+00  2.08698254E+00  2.08923933E+00  2.08923869E+00  2.89798221E+00
  2.09195065E+00  2.09194886E+00  2.08699686E+00  2.08923920E+00  2.08923932E+00
  1.94970360E+00  1.93845904E+00  1.93845288E+00  1.87970831E+00  1.87970292E+00
  1.87463235E+00  1.96795058E+00  1.91032132E+00  1.91031132E+00  1.91033649E+00
  1.91033543E+00  1.85091376E+00  1.94972034E+00  1.93847708E+00  1.93847933E+00
  1.87966892E+00  1.87966627E+00  1.87464360E+00  3.14159021E+00 -1.01080730E+00
  1.01081093E+00 -1.04254611E+00  1.08824169E+00  3.10985992E+00  1.04255229E+00
 -3.10984521E+00 -1.08822699E+00  3.14153715E+00 -1.04262555E+00  1.04251639E+00
  1.01075790E+00  3.10978051E+00 -1.08826286E+00 -1.01088246E+00  1.08814015E+00
 -3.10990323E+00
ZRed-IntVec                                I   N=          46
           0           0           0           0           0           0
           0           0           0           0           0           0
           0           0           0           0           0           0
           0           0           0           0           0           0
           0           0           0           0           0           0
           0           0           0           0           0           0
           0           0           0           0           0           0
           0           0           0           0
ZRed-FPVec                                 R   N=          46
  0.00000000E+00  0.00000000E+00  0.00000000E+00  0.00000000E+00  0.00000000E+00
  0.00000000E+00  0.00000000E+00  0.00000000E+00  0.00000000E+00  0.00000000E+00
  0.00000000E+00  0.00000000E+00  0.00000000E+00  0.00000000E+00  0.00000000E+00
  0.00000000E+00  0.00000000E+00  0.00000000E+00  0.00000000E+00  0.00000000E+00
  0.00000000E+00  0.00000000E+00  0.00000000E+00  0.00000000E+00  0.00000000E+00
  0.00000000E+00  0.00000000E+00  0.00000000E+00  0.00000000E+00  0.00000000E+00
  0.00000000E+00  0.00000000E+00  0.00000000E+00  0.00000000E+00  0.00000000E+00
  0.00000000E+00  0.00000000E+00  0.00000000E+00  0.00000000E+00  0.00000000E+00
  0.00000000E+00  0.00000000E+00  0.00000000E+00  0.00000000E+00  0.00000000E+00
  0.00000000E+00
ZRed-Constraint1                           R   N=          46
  2.89802788E+00  2.08698254E+00  2.08923933E+00  2.08923869E+00  2.89798221E+00
  2.09195065E+00  2.09194886E+00  2.08699686E+00  2.08923920E+00  2.08923932E+00
  1.94970360E+00  1.93845904E+00  1.93845288E+00  1.87970831E+00  1.87970292E+00
  1.87463235E+00  1.96795058E+00  1.91032132E+00  1.91031132E+00  1.91033649E+00
  1.91033543E+00  1.85091376E+00  1.94972034E+00  1.93847708E+00  1.93847933E+00
  1.87966892E+00  1.87966627E+00  1.87464360E+00  3.14159021E+00 -1.01080730E+00
  1.01081093E+00 -1.04254611E+00  1.08824169E+00  3.10985992E+00  1.04255229E+00
 -3.10984521E+00 -1.08822699E+00  3.14153715E+00 -1.04262555E+00  1.04251639E+00
  1.01075790E+00  3.10978051E+00 -1.08826286E+00 -1.01088246E+00  1.08814015E+00
 -3.10990323E+00
ZRed-Constraint2                           R   N=          46
  2.84970700E+00  2.10891827E+00  2.10871252E+00  2.11112943E+00  2.84871497E+00
  2.11968314E+00  2.12120305E+00  2.11144065E+00  2.10975629E+00  2.10975629E+00
  1.92684021E+00  1.93070374E+00  1.93027298E+00  1.89286657E+00  1.89336906E+00
  1.88866215E+00  1.95068679E+00  1.91073158E+00  1.91047817E+00  1.91069289E+00
  1.91043952E+00  1.86900158E+00  1.92651961E+00  1.93093742E+00  1.93093742E+00
  1.89194402E+00  1.89194402E+00  1.89040650E+00  3.14159265E+00 -1.02161935E+00
  1.02211255E+00 -1.04630585E+00  1.07366746E+00  3.11739936E+00  1.04595700E+00
 -3.11725500E+00 -1.07352310E+00  3.14159265E+00 -1.04751521E+00  1.04751521E+00
  1.02159699E+00  3.11567444E+00 -1.07248045E+00 -1.02209021E+00  1.07198724E+00
 -3.11616766E+00
SymInf integers                            I   N=          26
           1           1           1           1           1           0
           0           0           0           0           0           0
           0           0           0           0           0           0
           0           0           0           0           0           0
           0           0
RotTr to input orientation                 R   N=          12
  8.28050844E-01 -5.60653012E-01 -0.00000000E+00  5.60653012E-01  8.28050844E-01
 -0.00000000E+00 -0.00000000E+00 -0.00000000E+00  1.00000000E+00 -8.09869972E+00
  2.68838721E+00 -1.35711991E-01
Number of contracted shells                I               31
Number of primitive shells                 I               68
Pure/Cartesian d shells                    I                1
Pure/Cartesian f shells                    I                0
Highest angular momentum                   I                2
Largest degree of contraction              I                6
Shell types                                I   N=          31
           0          -1          -1          -1           2           0
          -1          -1          -1           2           0           0
           0           0           0           0           0          -1
          -1          -1           2           0           0           0
           0           0           0           0           0           0
           0
Number of primitives per shell             I   N=          31
           6           3           1           1           1           6
           3           1           1           1           3           1
           3           1           3           1           6           3
           1           1           1           3           1           3
           1           3           1           3           1           3
           1
Shell to atom map                          I   N=          31
           1           1           1           1           1           2
           2           2           2           2           3           3
           4           4           5           5           6           6
           6           6           6           7           7           8
           8           9           9          10          10          11
          11
Primitive exponents                        R   N=          68
  3.04752488E+03  4.57369518E+02  1.03948685E+02  2.92101553E+01  9.28666296E+00
  3.16392696E+00  7.86827235E+00  1.88128854E+00  5.44249258E-01  1.68714478E-01
  4.38000000E-02  8.00000000E-01  3.04752488E+03  4.57369518E+02  1.03948685E+02
  2.92101553E+01  9.28666296E+00  3.16392696E+00  7.86827235E+00  1.88128854E+00
  5.44249258E-01  1.68714478E-01  4.38000000E-02  8.00000000E-01  1.87311370E+01
  2.82539436E+00  6.40121692E-01  1.61277759E-01  1.87311370E+01  2.82539436E+00
  6.40121692E-01  1.61277759E-01  1.87311370E+01  2.82539436E+00  6.40121692E-01
  1.61277759E-01  3.04752488E+03  4.57369518E+02  1.03948685E+02  2.92101553E+01
  9.28666296E+00  3.16392696E+00  7.86827235E+00  1.88128854E+00  5.44249258E-01
  1.68714478E-01  4.38000000E-02  8.00000000E-01  1.87311370E+01  2.82539436E+00
  6.40121692E-01  1.61277759E-01  1.87311370E+01  2.82539436E+00  6.40121692E-01
  1.61277759E-01  1.87311370E+01  2.82539436E+00  6.40121692E-01  1.61277759E-01
  1.87311370E+01  2.82539436E+00  6.40121692E-01  1.61277759E-01  1.87311370E+01
  2.82539436E+00  6.40121692E-01  1.61277759E-01
Contraction coefficients                   R   N=          68
  1.83473713E-03  1.40373228E-02  6.88426223E-02  2.32184443E-01  4.67941348E-01
  3.62311985E-01 -1.19332420E-01 -1.60854152E-01  1.14345644E+00  1.00000000E+00
  1.00000000E+00  1.00000000E+00  1.83473713E-03  1.40373228E-02  6.88426223E-02
  2.32184443E-01  4.67941348E-01  3.62311985E-01 -1.19332420E-01 -1.60854152E-01
  1.14345644E+00  1.00000000E+00  1.00000000E+00  1.00000000E+00  3.34946043E-02
  2.34726953E-01  8.13757326E-01  1.00000000E+00  3.34946043E-02  2.34726953E-01
  8.13757326E-01  1.00000000E+00  3.34946043E-02  2.34726953E-01  8.13757326E-01
  1.00000000E+00  1.83473713E-03  1.40373228E-02  6.88426223E-02  2.32184443E-01
  4.67941348E-01  3.62311985E-01 -1.19332420E-01 -1.60854152E-01  1.14345644E+00
  1.00000000E+00  1.00000000E+00  1.00000000E+00  3.34946043E-02  2.34726953E-01
  8.13757326E-01  1.00000000E+00  3.34946043E-02  2.34726953E-01  8.13757326E-01
  1.00000000E+00  3.34946043E-02  2.34726953E-01  8.13757326E-01  1.00000000E+00
  3.34946043E-02  2.34726953E-01  8.13757326E-01  1.00000000E+00  3.34946043E-02
  2.34726953E-01  8.13757326E-01  1.00000000E+00
P(S=P) Contraction coefficients            R   N=          68
  0.00000000E+00  0.00000000E+00  0.00000000E+00  0.00000000E+00  0.00000000E+00
  0.00000000E+00  6.89990666E-02  3.16423961E-01  7.44308291E-01  1.00000000E+00
  1.00000000E+00  0.00000000E+00  0.00000000E+00  0.00000000E+00  0.00000000E+00
  0.00000000E+00  0.00000000E+00  0.00000000E+00  6.89990666E-02  3.16423961E-01
  7.44308291E-01  1.00000000E+00  1.00000000E+00  0.00000000E+00  0.00000000E+00
  0.00000000E+00  0.00000000E+00  0.00000000E+00  0.00000000E+00  0.00000000E+00
  0.00000000E+00  0.00000000E+00  0.00000000E+00  0.00000000E+00  0.00000000E+00
  0.00000000E+00  0.00000000E+00  0.00000000E+00  0.00000000E+00  0.00000000E+00
  0.00000000E+00  0.00000000E+00  6.89990666E-02  3.16423961E-01  7.44308291E-01
  1.00000000E+00  1.00000000E+00  0.00000000E+00  0.00000000E+00  0.00000000E+00
  0.00000000E+00  0.00000000E+00  0.00000000E+00  0.00000000E+00  0.00000000E+00
  0.00000000E+00  0.00000000E+00  0.00000000E+00  0.00000000E+00  0.00000000E+00
  0.00000000E+00  0.00000000E+00  0.00000000E+00  0.00000000E+00  0.00000000E+00
  0.00000000E+00  0.00000000E+00  0.00000000E+00
Coordinates of each shell                  R   N=          93
 -2.41319622E+00 -4.91994565E-01  1.17500277E-04 -2.41319622E+00 -4.91994565E-01
  1.17500277E-04 -2.41319622E+00 -4.91994565E-01  1.17500277E-04 -2.41319622E+00
 -4.91994565E-01  1.17500277E-04 -2.41319622E+00 -4.91994565E-01  1.17500277E-04
  1.48848796E-05  1.11267916E+00  1.17000914E-04  1.48848796E-05  1.11267916E+00
  1.17000914E-04  1.48848796E-05  1.11267916E+00  1.17000914E-04  1.48848796E-05
  1.11267916E+00  1.17000914E-04  1.48848796E-05  1.11267916E+00  1.17000914E-04
 -4.12965675E+00  6.95127712E-01  3.69758032E-04 -4.12965675E+00  6.95127712E-01
  3.69758032E-04 -2.49452874E+00 -1.72588526E+00 -1.68387173E+00 -2.49452874E+00
 -1.72588526E+00 -1.68387173E+00 -2.49428480E+00 -1.72622898E+00  1.68386581E+00
 -2.49428480E+00 -1.72622898E+00  1.68386581E+00  2.41317110E+00 -4.91994610E-01
 -2.24153052E-04  2.41317110E+00 -4.91994610E-01 -2.24153052E-04  2.41317110E+00
 -4.91994610E-01 -2.24153052E-04  2.41317110E+00 -4.91994610E-01 -2.24153052E-04
  2.41317110E+00 -4.91994610E-01 -2.24153052E-04 -1.14781899E-04  2.37111123E+00
 -1.67099228E+00 -1.14781899E-04  2.37111123E+00 -1.67099228E+00  1.11243038E-04
  2.37073567E+00  1.67150680E+00  1.11243038E-04  2.37073567E+00  1.67150680E+00
  4.12967575E+00  6.95089070E-01 -3.27269255E-04  4.12967575E+00  6.95089070E-01
 -3.27269255E-04  2.49459779E+00 -1.72614597E+00  1.68356934E+00  2.49459779E+00
 -1.72614597E+00  1.68356934E+00  2.49426172E+00 -1.72594335E+00 -1.68418251E+00
  2.49426172E+00 -1.72594335E+00 -1.68418251E+00
Num ILSW                                   I              100
ILSW                                       I   N=         100
           0           1           0           0           2           0
           0           0           0           0        1009          -1
           5           0           0           0           2           0
           0           0           1           0           1           0
           1           0           0           0           0           0
           0           0      100000           0          -1           0
           0           0           0           0           0           0
           0           0           0           1           0           0
           0 -2000000000           1           0           0           0
           0           0         141          52           0           0
           0           0           0           0           0           0
           0           0           0           0           0           1
           0           0           0           0           0           0
           0           0           0           0           0           0
           0           0           0           0           0           0
           0           0           0           0           0           0
           0           0           0           0
Num RLSW                                   I               52
RLSW                                       R   N=          52
  1.00000000E+00  1.00000000E+00  1.00000000E+00  1.00000000E+00  0.00000000E+00
  0.00000000E+00  0.00000000E+00  1.00000000E+00  0.00000000E+00  0.00000000E+00
  0.00000000E+00  0.00000000E+00  1.00000000E+00  0.00000000E+00  0.00000000E+00
  0.00000000E+00  0.00000000E+00  1.00000000E+00  0.00000000E+00  0.00000000E+00
  0.00000000E+00  0.00000000E+00  1.00000000E+00  0.00000000E+00  0.00000000E+00
  0.00000000E+00  0.00000000E+00  1.00000000E+00  0.00000000E+00  0.00000000E+00
  0.00000000E+00  0.00000000E+00  1.00000000E+00  0.00000000E+00  0.00000000E+00
  0.00000000E+00  0.00000000E+00  0.00000000E+00  1.00000000E+00  1.00000000E+00
  0.00000000E+00  1.00000000E+00  0.00000000E+00  0.00000000E+00  0.00000000E+00
  0.00000000E+00  0.00000000E+00  0.00000000E+00  0.00000000E+00  0.00000000E+00
  0.00000000E+00  0.00000000E+00
MxBond                                     I                4
NBond                                      I   N=          11
           4           4           1           1           1           4
           1           1           1           1           1
IBond                                      I   N=          44
           2           3           4           5           1           6
           7           8           1           0           0           0
           1           0           0           0           1           0
           0           0           2           9          10          11
           2           0           0           0           2           0
           0           0           6           0           0           0
           6           0           0           0           6           0
           0           0
RBond                                      R   N=          44
  1.00000000E+00  1.00000000E+00  1.00000000E+00  1.00000000E+00  1.00000000E+00
  1.00000000E+00  1.00000000E+00  1.00000000E+00  1.00000000E+00  0.00000000E+00
  0.00000000E+00  0.00000000E+00  1.00000000E+00  0.00000000E+00  0.00000000E+00
  0.00000000E+00  1.00000000E+00  0.00000000E+00  0.00000000E+00  0.00000000E+00
  1.00000000E+00  1.00000000E+00  1.00000000E+00  1.00000000E+00  1.00000000E+00
  0.00000000E+00  0.00000000E+00  0.00000000E+00  1.00000000E+00  0.00000000E+00
  0.00000000E+00  0.00000000E+00  1.00000000E+00  0.00000000E+00  0.00000000E+00
  0.00000000E+00  1.00000000E+00  0.00000000E+00  0.00000000E+00  0.00000000E+00
  1.00000000E+00  0.00000000E+00  0.00000000E+00  0.00000000E+00
Virial Ratio                               R      2.011271477541509E+00
SCF Energy                                 R     -1.189659119990553E+02
Total Energy                               R     -1.189659119990553E+02
RMS Force                                  R      4.695123833638773E-05
RMS Density                                R      8.183891613205674E-10
NImag                                      I                0
Job Status                                 I                1
Nuclear derivative order                   I                2
External E-field                           R   N=          35
  0.00000000E+00  0.00000000E+00  0.00000000E+00  0.00000000E+00  0.00000000E+00
  0.00000000E+00  0.00000000E+00  0.00000000E+00  0.00000000E+00  0.00000000E+00
  0.00000000E+00  0.00000000E+00  0.00000000E+00  0.00000000E+00  0.00000000E+00
  0.00000000E+00  0.00000000E+00  0.00000000E+00  0.00000000E+00  0.00000000E+00
  0.00000000E+00  0.00000000E+00  0.00000000E+00  0.00000000E+00  0.00000000E+00
  0.00000000E+00  0.00000000E+00  0.00000000E+00  0.00000000E+00  0.00000000E+00
  0.00000000E+00  0.00000000E+00  0.00000000E+00  0.00000000E+00  0.00000000E+00
IOpCl                                      I                0
IROHF                                      I                0
Alpha Orbital Energies                     R   N=          73
 -9.89871822E+00 -9.88952472E+00 -9.88951870E+00 -7.04924208E-01 -6.11109862E-01
 -5.21839666E-01 -4.05078581E-01 -3.86711826E-01 -3.50737191E-01 -3.33119628E-01
 -2.95003471E-01 -2.93436807E-01 -2.83271273E-01  2.60232545E-03  2.04642496E-02
  2.44561825E-02  3.29234459E-02  5.80549452E-02  6.72349029E-02  7.39309570E-02
  7.46502744E-02  8.36381676E-02  1.02753315E-01  1.10506233E-01  1.39080545E-01
  1.65183484E-01  1.71731931E-01  1.72376862E-01  2.17440077E-01  2.20807828E-01
  2.22205475E-01  2.47094062E-01  2.81175680E-01  3.03927262E-01  3.17041386E-01
  5.72882741E-01  5.98447529E-01  6.13804560E-01  6.24119986E-01  6.47497447E-01
  6.54850135E-01  6.83053578E-01  6.90622887E-01  7.89343057E-01  8.81607420E-01
  8.98252405E-01  9.17400205E-01  9.38659847E-01  9.62401947E-01  1.00354099E+00
  1.05473728E+00  1.06407271E+00  1.07262885E+00  1.34996484E+00  1.39744660E+00
  1.42116374E+00  1.52455777E+00  1.68006716E+00  1.82511114E+00  1.85935819E+00
  1.91564256E+00  1.96927577E+00  2.03644832E+00  2.16038360E+00  2.18058046E+00
  2.25477072E+00  2.31260707E+00  2.33886502E+00  2.51922217E+00  2.61636128E+00
  4.08483108E+00  4.21394776E+00  4.38981590E+00
Alpha MO coefficients                      R   N=        5329
  5.76565827E-03 -8.91072118E-05 -1.13585001E-04 -1.36122544E-04 -3.71757920E-09
  5.81290744E-03  2.43485302E-03  1.55089252E-03 -1.76744552E-08 -3.27192143E-04
 -3.64767404E-04  8.72233901E-05  2.87345820E-08 -3.90092862E-04 -3.39520257E-04
 -1.63478096E-04 -1.83371880E-04 -7.15991838E-10 -7.87532455E-09  9.92679469E-01
  5.36013884E-02  1.75381856E-08 -1.07338751E-04 -5.17016907E-09 -2.30098224E-02
  1.66541926E-08  1.56182301E-03  1.38183649E-07 -7.26106855E-05  9.54362150E-08
 -8.74571369E-04 -9.14567778E-08 -9.75906096E-03 -9.67005726E-03 -9.52544947E-03
 -2.64436311E-08  1.94179612E-08 -1.91955081E-08 -1.82209772E-04 -1.00339631E-04
 -2.17398756E-04  8.85534901E-05 -2.17398160E-04  8.85729609E-05  5.76696444E-03
 -8.90421963E-05  1.13614383E-04 -1.36150709E-04 -1.87911098E-08  5.81297190E-03
 -2.43485866E-03  1.55094595E-03  3.19013367E-07 -3.27426565E-04  3.64783512E-04
  8.71845131E-05 -2.78182337E-08 -3.90116214E-04 -3.39540123E-04 -1.63480929E-04
  1.83388052E-04  3.70454427E-08 -3.32811032E-08 -1.22213330E-04  3.93555130E-03
 -1.22210207E-04  3.93558440E-03 -1.82208034E-04 -1.00324447E-04 -2.17398167E-04
  8.86169008E-05 -2.17392026E-04  8.85709508E-05  7.09265002E-01  3.84096393E-02
  1.68649804E-04 -6.10609493E-05 -1.53051526E-08 -1.47999307E-02 -1.29753307E-03
 -8.89308845E-05  7.88292815E-08  4.60007645E-04  2.82791969E-04  5.69222413E-04
  4.23897737E-08 -7.08037349E-03 -7.03644953E-03 -6.94710690E-03 -6.92772498E-05
  2.12291584E-09 -4.03693455E-09 -8.86917004E-05 -9.42138575E-06  2.40762936E-04
  1.74342735E-06 -1.68242333E-08  7.56314742E-05 -3.44258020E-03 -1.55018312E-05
  2.30490307E-07  1.58408775E-04  1.04871453E-03 -2.98372908E-05 -8.48765626E-08
 -4.63276165E-06 -3.07475139E-06 -6.62670532E-07 -1.97730189E-04 -2.27563359E-08
  1.39180271E-08 -1.55025319E-04  2.09494897E-03 -9.52124781E-05  2.89603288E-03
 -9.51996822E-05  2.89599136E-03 -6.94445688E-01 -3.76150103E-02  1.70191980E-04
  6.21072237E-05 -1.47211191E-08  1.45136564E-02 -1.29057855E-03  7.37070959E-05
  1.60554037E-07 -6.27258860E-04  3.16486307E-04 -5.89561036E-04 -5.78034437E-08
  6.93108501E-03  6.88779202E-03  6.79814937E-03 -6.78386175E-05 -1.44429724E-08
  1.95038639E-08 -2.31051927E-06 -5.66697331E-06 -2.30637536E-06 -5.67188022E-06
  1.50825138E-04 -2.03066590E-03  9.11553630E-05 -2.84598907E-03  9.11390896E-05
 -2.84590023E-03  6.94338296E-01  3.72282849E-02 -7.48674186E-05  5.07189317E-05
  1.38051903E-08 -1.34035850E-02 -3.08036117E-04 -7.22878237E-04 -5.97539389E-08
 -7.91360471E-03 -1.59374729E-03 -9.67271199E-04  1.13649120E-08 -6.99491964E-03
 -6.96643055E-03 -6.98124372E-03 -6.58588568E-05 -2.42141576E-09  6.94312489E-09
 -8.48733918E-03 -8.96790305E-04 -2.56437896E-06  1.66426642E-04  2.34723433E-08
  7.16511669E-03  3.63638282E-05 -1.46605517E-03 -2.06061294E-07  1.49788226E-02
 -1.09043074E-05 -2.82219395E-03 -3.38665162E-07 -4.38380083E-04 -2.90966451E-04
 -6.10038263E-05  2.09714476E-06  2.82254364E-08 -2.92382210E-08 -1.96114254E-04
  3.02468075E-03 -1.91601010E-04  2.33958269E-03 -1.91610793E-04  2.33962414E-03
  7.09159836E-01  3.80310424E-02  7.12894441E-05  4.94287017E-05 -8.86950917E-09
 -1.37132071E-02  3.35276624E-04 -7.24621563E-04 -2.70930433E-08 -7.90281204E-03
  1.58748150E-03 -9.55164152E-04 -1.73451903E-07 -7.14285293E-03 -7.11345635E-03
 -7.12638875E-03  6.72769468E-05  8.32376801E-09 -2.35823929E-09 -2.18271846E-04
 -5.37330156E-04 -2.18267897E-04 -5.37267799E-04 -1.99325915E-04  3.06826973E-03
 -1.93562074E-04  2.40017984E-03 -1.93572748E-04  2.40028718E-03 -1.09631207E-01
  2.02496410E-01  5.06221455E-02  2.58196861E-02 -4.36416020E-07  1.82925154E-01
  3.97268455E-03 -6.20618274E-04 -1.72389677E-08  6.15434835E-03  7.26526302E-04
  6.98576458E-04  8.06178109E-08  4.41557408E-03  7.54459026E-04 -7.10736438E-04
  3.05644231E-03 -8.16352889E-08 -5.95365988E-10 -1.47322180E-01  2.73969453E-01
  4.17236304E-06 -4.01677584E-02 -3.72351793E-06  2.41491592E-01 -4.67913515E-07
  1.51849536E-03  7.53940640E-07  2.26681268E-02 -1.06613218E-06 -4.06888052E-03
 -2.10436958E-07  2.15452973E-03  5.97264092E-04 -1.23552990E-03 -4.50692266E-07
 -3.42205042E-07  2.02754442E-07  5.59590847E-02 -2.33416283E-04  5.93182493E-02
 -4.87928880E-04  5.93186137E-02 -4.88482891E-04 -1.09636372E-01  2.02506321E-01
 -5.06237460E-02  2.58223371E-02  6.41322014E-06  1.82933878E-01 -3.97106435E-03
 -6.19988458E-04  1.38853360E-07  6.15865643E-03 -7.27282699E-04  6.99429518E-04