 Entering Gaussian System, Link 0=g16
 Input=propane_hessian.inp
 Output=propane_hessian.log
 Initial command:
 /biggin/b120/grte2001/src/g16root/g16/l1.exe "/biggin/b120/grte2001/Gaussian_test/propane_qforce/Gau-27331.inp" -scrdir="/biggin/b120/grte2001/Gaussian_test/propane_qforce/"
 Entering Link 1 = /biggin/b120/grte2001/src/g16root/g16/l1.exe PID=     27333.
  
 Copyright (c) 1988,1990,1992,1993,1995,1998,2003,2009,2016,
            Gaussian, Inc.  All Rights Reserved.
  
 This is part of the Gaussian(R) 16 program.  It is based on
 the Gaussian(R) 09 system (copyright 2009, Gaussian, Inc.),
 the Gaussian(R) 03 system (copyright 2003, Gaussian, Inc.),
 the Gaussian(R) 98 system (copyright 1998, Gaussian, Inc.),
 the Gaussian(R) 94 system (copyright 1995, Gaussian, Inc.),
 the Gaussian 92(TM) system (copyright 1992, Gaussian, Inc.),
 the Gaussian 90(TM) system (copyright 1990, Gaussian, Inc.),
 the Gaussian 88(TM) system (copyright 1988, Gaussian, Inc.),
 the Gaussian 86(TM) system (copyright 1986, Carnegie Mellon
 University), and the Gaussian 82(TM) system (copyright 1983,
 Carnegie Mellon University). Gaussian is a federally registered
 trademark of Gaussian, Inc.
  
 This software contains proprietary and confidential information,
 including trade secrets, belonging to Gaussian, Inc.
  
 This software is provided under written license and may be
 used, copied, transmitted, or stored only in accord with that
 written license.
  
 The following legend is applicable only to US Government
 contracts under FAR:
  
                    RESTRICTED RIGHTS LEGEND
  
 Use, reproduction and disclosure by the US Government is
 subject to restrictions as set forth in subparagraphs (a)
 and (c) of the Commercial Computer Software - Restricted
 Rights clause in FAR 52.227-19.
  
 Gaussian, Inc.
 340 Quinnipiac St., Bldg. 40, Wallingford CT 06492
  
  
 ---------------------------------------------------------------
 Warning -- This program may not be used in any manner that
 competes with the business of Gaussian, Inc. or will provide
 assistance to any competitor of Gaussian, Inc.  The licensee
 of this program is prohibited from giving any competitor of
 Gaussian, Inc. access to this program.  By using this program,
 the user acknowledges that Gaussian, Inc. is engaged in the
 business of creating and licensing software in the field of
 computational chemistry and represents and warrants to the
 licensee that it is not a competitor of Gaussian, Inc. and that
 it will not use this program in any manner prohibited above.
 ---------------------------------------------------------------
  

 Cite this work as:
 Gaussian 16, Revision A.03,
 M. J. Frisch, G. W. Trucks, H. B. Schlegel, G. E. Scuseria, 
 M. A. Robb, J. R. Cheeseman, G. Scalmani, V. Barone, 
 G. A. Petersson, H. Nakatsuji, X. Li, M. Caricato, A. V. Marenich, 
 J. Bloino, B. G. Janesko, R. Gomperts, B. Mennucci, H. P. Hratchian, 
 J. V. Ortiz, A. F. Izmaylov, J. L. Sonnenberg, D. Williams-Young, 
 F. Ding, F. Lipparini, F. Egidi, J. Goings, B. Peng, A. Petrone, 
 T. Henderson, D. Ranasinghe, V. G. Zakrzewski, J. Gao, N. Rega, 
 G. Zheng, W. Liang, M. Hada, M. Ehara, K. Toyota, R. Fukuda, 
 J. Hasegawa, M. Ishida, T. Nakajima, Y. Honda, O. Kitao, H. Nakai, 
 T. Vreven, K. Throssell, J. A. Montgomery, Jr., J. E. Peralta, 
 F. Ogliaro, M. J. Bearpark, J. J. Heyd, E. N. Brothers, K. N. Kudin, 
 V. N. Staroverov, T. A. Keith, R. Kobayashi, J. Normand, 
 K. Raghavachari, A. P. Rendell, J. C. Burant, S. S. Iyengar, 
 J. Tomasi, M. Cossi, J. M. Millam, M. Klene, C. Adamo, R. Cammi, 
 J. W. Ochterski, R. L. Martin, K. Morokuma, O. Farkas, 
 J. B. Foresman, and D. J. Fox, Gaussian, Inc., Wallingford CT, 2016.
 
 ******************************************
 Gaussian 16:  ES64L-G16RevA.03 25-Dec-2016
                 4-Nov-2021 
 ******************************************
 %nprocshared=12
 Will use up to   12 processors via shared memory.
 %mem=30000MB
 %chk=propane_hessian.chk
 ----------------------------------------------------------------------
 #Opt Freq PBEPBE EmpiricalDispersion=GD3BJ 6-31+G(D) pop=(CM5, ESP, NB
 OREAD)
 ----------------------------------------------------------------------
 1/18=20,19=15,26=3,38=1/1,3;
 2/9=110,12=2,17=6,18=5,40=1/2;
 3/5=1,6=6,7=11,11=2,25=1,30=1,71=1,74=1009,124=41/1,2,3;
 4//1;
 5/5=2,38=5/2;
 6/7=2,8=2,9=2,10=2,15=8,28=1,40=2,79=1/1,2,7;
 7//1,2,3,16;
 1/18=20,19=15,26=3/3(2);
 2/9=110/2;
 99//99;
 2/9=110/2;
 3/5=1,6=6,7=11,11=2,25=1,30=1,71=1,74=1009,124=41/1,2,3;
 4/5=5,16=3,69=1/1;
 5/5=2,38=5/2;
 7//1,2,3,16;
 1/18=20,19=15,26=3/3(-5);
 2/9=110/2;
 6/7=2,8=2,9=2,10=2,15=8,19=2,28=1,40=2,79=1/1,2,7;
 99/9=1/99;
 -------
 propane
 -------
 Symbolic Z-matrix:
 Charge =  0 Multiplicity = 1
 C                    -5.467     1.905    -0.072 
 C                    -3.959     1.905    -0.072 
 H                    -5.856     2.951    -0.072 
 H                    -5.86      1.382    -0.976 
 H                    -5.86      1.381     0.833 
 C                    -3.4       0.505    -0.072 
 H                    -3.585     2.457    -0.974 
 H                    -3.585     2.457     0.831 
 H                    -2.283     0.532    -0.072 
 H                    -3.739    -0.054     0.833 
 H                    -3.739    -0.054    -0.977 
 

 GradGradGradGradGradGradGradGradGradGradGradGradGradGradGradGradGradGrad
 Berny optimization.
 Initialization pass.
                           ----------------------------
                           !    Initial Parameters    !
                           ! (Angstroms and Degrees)  !
 --------------------------                            --------------------------
 ! Name  Definition              Value          Derivative Info.                !
 --------------------------------------------------------------------------------
 ! R1    R(1,2)                  1.508          estimate D2E/DX2                !
 ! R2    R(1,3)                  1.116          estimate D2E/DX2                !
 ! R3    R(1,4)                  1.1159         estimate D2E/DX2                !
 ! R4    R(1,5)                  1.1172         estimate D2E/DX2                !
 ! R5    R(2,6)                  1.5075         estimate D2E/DX2                !
 ! R6    R(2,7)                  1.1217         estimate D2E/DX2                !
 ! R7    R(2,8)                  1.1225         estimate D2E/DX2                !
 ! R8    R(6,9)                  1.1173         estimate D2E/DX2                !
 ! R9    R(6,10)                 1.1164         estimate D2E/DX2                !
 ! R10   R(6,11)                 1.1164         estimate D2E/DX2                !
 ! A1    A(2,1,3)              110.3998         estimate D2E/DX2                !
 ! A2    A(2,1,4)              110.6212         estimate D2E/DX2                !
 ! A3    A(2,1,5)              110.5965         estimate D2E/DX2                !
 ! A4    A(3,1,4)              108.4533         estimate D2E/DX2                !
 ! A5    A(3,1,5)              108.4821         estimate D2E/DX2                !
 ! A6    A(4,1,5)              108.2124         estimate D2E/DX2                !
 ! A7    A(1,2,6)              111.7661         estimate D2E/DX2                !
 ! A8    A(1,2,7)              109.4769         estimate D2E/DX2                !
 ! A9    A(1,2,8)              109.4623         estimate D2E/DX2                !
 ! A10   A(6,2,7)              109.4746         estimate D2E/DX2                !
 ! A11   A(6,2,8)              109.4601         estimate D2E/DX2                !
 ! A12   A(7,2,8)              107.0859         estimate D2E/DX2                !
 ! A13   A(2,6,9)              110.3814         estimate D2E/DX2                !
 ! A14   A(2,6,10)             110.6346         estimate D2E/DX2                !
 ! A15   A(2,6,11)             110.6346         estimate D2E/DX2                !
 ! A16   A(9,6,10)             108.4004         estimate D2E/DX2                !
 ! A17   A(9,6,11)             108.4004         estimate D2E/DX2                !
 ! A18   A(10,6,11)            108.3123         estimate D2E/DX2                !
 ! D1    D(3,1,2,6)            180.0            estimate D2E/DX2                !
 ! D2    D(3,1,2,7)            -58.5345         estimate D2E/DX2                !
 ! D3    D(3,1,2,8)             58.5627         estimate D2E/DX2                !
 ! D4    D(4,1,2,6)            -59.9489         estimate D2E/DX2                !
 ! D5    D(4,1,2,7)             61.5166         estimate D2E/DX2                !
 ! D6    D(4,1,2,8)            178.6138         estimate D2E/DX2                !
 ! D7    D(5,1,2,6)             59.9289         estimate D2E/DX2                !
 ! D8    D(5,1,2,7)           -178.6056         estimate D2E/DX2                !
 ! D9    D(5,1,2,8)            -61.5083         estimate D2E/DX2                !
 ! D10   D(1,2,6,9)            180.0            estimate D2E/DX2                !
 ! D11   D(1,2,6,10)           -60.0182         estimate D2E/DX2                !
 ! D12   D(1,2,6,11)            60.0182         estimate D2E/DX2                !
 ! D13   D(7,2,6,9)             58.5332         estimate D2E/DX2                !
 ! D14   D(7,2,6,10)           178.515          estimate D2E/DX2                !
 ! D15   D(7,2,6,11)           -61.4486         estimate D2E/DX2                !
 ! D16   D(8,2,6,9)            -58.5615         estimate D2E/DX2                !
 ! D17   D(8,2,6,10)            61.4203         estimate D2E/DX2                !
 ! D18   D(8,2,6,11)          -178.5433         estimate D2E/DX2                !
 --------------------------------------------------------------------------------
 Trust Radius=3.00D-01 FncErr=1.00D-07 GrdErr=1.00D-06 EigMax=2.50D+02 EigMin=1.00D-04
 Number of steps in this run=     56 maximum allowed number of steps=    100.
 GradGradGradGradGradGradGradGradGradGradGradGradGradGradGradGradGradGrad

                          Input orientation:                          
 ---------------------------------------------------------------------
 Center     Atomic      Atomic             Coordinates (Angstroms)
 Number     Number       Type             X           Y           Z
 ---------------------------------------------------------------------
      1          6           0       -5.467000    1.905000   -0.072000
      2          6           0       -3.959000    1.905000   -0.072000
      3          1           0       -5.856000    2.951000   -0.072000
      4          1           0       -5.860000    1.382000   -0.976000
      5          1           0       -5.860000    1.381000    0.833000
      6          6           0       -3.400000    0.505000   -0.072000
      7          1           0       -3.585000    2.457000   -0.974000
      8          1           0       -3.585000    2.457000    0.831000
      9          1           0       -2.283000    0.532000   -0.072000
     10          1           0       -3.739000   -0.054000    0.833000
     11          1           0       -3.739000   -0.054000   -0.977000
 ---------------------------------------------------------------------
                    Distance matrix (angstroms):
                    1          2          3          4          5
     1  C    0.000000
     2  C    1.508000   0.000000
     3  H    1.115991   2.166270   0.000000
     4  H    1.115883   2.168997   1.810799   0.000000
     5  H    1.117162   2.169655   1.812165   1.809000   0.000000
     6  C    2.496495   1.507475   3.466245   2.763683   2.763693
     7  H    2.158757   1.121688   2.493006   2.516198   3.098169
     8  H    2.159175   1.122492   2.493368   3.097822   2.516626
     9  H    3.467418   2.166588   4.314845   3.786112   3.786127
    10  H    2.764542   2.169126   3.785596   3.135796   2.560833
    11  H    2.764542   2.169126   3.785596   2.561394   3.135915
                    6          7          8          9         10
     6  C    0.000000
     7  H    2.158271   0.000000
     8  H    2.158689   1.805000   0.000000
     9  H    1.117326   2.492876   2.493238   0.000000
    10  H    1.116435   3.097432   2.515719   1.811728   0.000000
    11  H    1.116435   2.515720   3.098016   1.811728   1.810000
                   11
    11  H    0.000000
 Stoichiometry    C3H8
 Framework group  C1[X(C3H8)]
 Deg. of freedom    27
 Full point group                 C1      NOp   1
 Largest Abelian subgroup         C1      NOp   1
 Largest concise Abelian subgroup C1      NOp   1
                         Standard orientation:                         
 ---------------------------------------------------------------------
 Center     Atomic      Atomic             Coordinates (Angstroms)
 Number     Number       Type             X           Y           Z
 ---------------------------------------------------------------------
      1          6           0       -1.248520   -0.260601   -0.000077
      2          6           0        0.000211    0.584820   -0.000077
      3          1           0       -2.157052    0.387478   -0.000077
      4          1           0       -1.280745   -0.914007   -0.904077
      5          1           0       -1.280184   -0.914835    0.904923
      6          6           0        1.247976   -0.261090   -0.000077
      7          1           0        0.000445    1.251588   -0.902077
      8          1           0        0.000445    1.251588    0.902923
      9          1           0        2.157794    0.387485   -0.000077
     10          1           0        1.280649   -0.914033    0.904923
     11          1           0        1.280649   -0.914033   -0.905077
 ---------------------------------------------------------------------
 Rotational constants (GHZ):          28.8703697           8.6642802           7.6629713
 Standard basis: 6-31+G(d) (6D, 7F)
 There are    73 symmetry adapted cartesian basis functions of A   symmetry.
 There are    73 symmetry adapted basis functions of A   symmetry.
    73 basis functions,   128 primitive gaussians,    73 cartesian basis functions
    13 alpha electrons       13 beta electrons
       nuclear repulsion energy        82.5702329977 Hartrees.
 NAtoms=   11 NActive=   11 NUniq=   11 SFac= 1.00D+00 NAtFMM=   60 NAOKFM=F Big=F
 Integral buffers will be    131072 words long.
 Raffenetti 2 integral format.
 Two-electron integral symmetry is turned on.
 Nuclear repulsion after empirical dispersion term =       82.5641627462 Hartrees.
 One-electron integrals computed using PRISM.
 NBasis=    73 RedAO= T EigKep=  2.00D-04  NBF=    73
 NBsUse=    73 1.00D-06 EigRej= -1.00D+00 NBFU=    73
 ExpMin= 4.38D-02 ExpMax= 3.05D+03 ExpMxC= 4.57D+02 IAcc=3 IRadAn=         5 AccDes= 0.00D+00
 Harris functional with IExCor= 1009 and IRadAn=       5 diagonalized for initial guess.
 HarFok:  IExCor= 1009 AccDes= 0.00D+00 IRadAn=         5 IDoV= 1 UseB2=F ITyADJ=14
 ICtDFT=  3500011 ScaDFX=  1.000000  1.000000  1.000000  1.000000
 FoFCou: FMM=F IPFlag=           0 FMFlag=      100000 FMFlg1=           0
         NFxFlg=           0 DoJE=T BraDBF=F KetDBF=T FulRan=T
         wScrn=  0.000000 ICntrl=       500 IOpCl=  0 I1Cent=   200000004 NGrid=           0
         NMat0=    1 NMatS0=      1 NMatT0=    0 NMatD0=    1 NMtDS0=    0 NMtDT0=    0
 Petite list used in FoFCou.
 Keep J ints in memory in canonical form, NReq=14405706.
 Requested convergence on RMS density matrix=1.00D-08 within 128 cycles.
 Requested convergence on MAX density matrix=1.00D-06.
 Requested convergence on             energy=1.00D-06.
 No special actions if energy rises.
 SCF Done:  E(RPBE-PBE) =  -118.964085616     A.U. after   11 cycles
            NFock= 11  Conv=0.96D-09     -V/T= 2.0115

 **********************************************************************

            Population analysis using the SCF density.

 **********************************************************************

 Orbital symmetries:
       Occupied  (A) (A) (A) (A) (A) (A) (A) (A) (A) (A) (A) (A)
                 (A)
       Virtual   (A) (A) (A) (A) (A) (A) (A) (A) (A) (A) (A) (A)
                 (A) (A) (A) (A) (A) (A) (A) (A) (A) (A) (A) (A)
                 (A) (A) (A) (A) (A) (A) (A) (A) (A) (A) (A) (A)
                 (A) (A) (A) (A) (A) (A) (A) (A) (A) (A) (A) (A)
                 (A) (A) (A) (A) (A) (A) (A) (A) (A) (A) (A) (A)
 The electronic state is 1-A.
 Alpha  occ. eigenvalues --   -9.89830  -9.89139  -9.89131  -0.71172  -0.60952
 Alpha  occ. eigenvalues --   -0.51581  -0.40952  -0.38915  -0.35229  -0.33225
 Alpha  occ. eigenvalues --   -0.29338  -0.29190  -0.28131
 Alpha virt. eigenvalues --    0.00171   0.02093   0.02375   0.03006   0.05802
 Alpha virt. eigenvalues --    0.06686   0.07138   0.07363   0.08275   0.10262
 Alpha virt. eigenvalues --    0.10854   0.13815   0.16309   0.16667   0.16999
 Alpha virt. eigenvalues --    0.21777   0.21928   0.22706   0.25250   0.28052
 Alpha virt. eigenvalues --    0.29915   0.31405   0.58143   0.59043   0.61348
 Alpha virt. eigenvalues --    0.62172   0.64875   0.66487   0.68976   0.69230
 Alpha virt. eigenvalues --    0.78413   0.87110   0.89576   0.90956   0.93891
 Alpha virt. eigenvalues --    0.95734   1.01025   1.04621   1.05587   1.06118
 Alpha virt. eigenvalues --    1.36752   1.39467   1.41040   1.52887   1.69844
 Alpha virt. eigenvalues --    1.82814   1.88672   1.93013   1.97999   2.06124
 Alpha virt. eigenvalues --    2.14093   2.16362   2.24620   2.31063   2.34460
 Alpha virt. eigenvalues --    2.52729   2.63781   4.09651   4.20766   4.38890
          Condensed to atoms (all electrons):
               1          2          3          4          5          6
     1  C    5.629531   0.090223   0.389987   0.399672   0.399767  -0.120118
     2  C    0.090223   5.693548  -0.071367  -0.055139  -0.055267   0.090667
     3  H    0.389987  -0.071367   0.505858  -0.025849  -0.025763   0.022546
     4  H    0.399672  -0.055139  -0.025849   0.507922  -0.030548  -0.011205
     5  H    0.399767  -0.055267  -0.025763  -0.030548   0.508180  -0.011181
     6  C   -0.120118   0.090667   0.022546  -0.011205  -0.011181   5.629088
     7  H   -0.054759   0.410406  -0.003238  -0.005411   0.004799  -0.054795
     8  H   -0.054916   0.410670  -0.003246   0.004802  -0.005416  -0.054883
     9  H    0.022667  -0.071638  -0.000163  -0.000003  -0.000002   0.389983
    10  H   -0.011257  -0.055199  -0.000002  -0.000578   0.004446   0.399760
    11  H   -0.011289  -0.055094  -0.000002   0.004441  -0.000578   0.399675
               7          8          9         10         11
     1  C   -0.054759  -0.054916   0.022667  -0.011257  -0.011289
     2  C    0.410406   0.410670  -0.071638  -0.055199  -0.055094
     3  H   -0.003238  -0.003246  -0.000163  -0.000002  -0.000002
     4  H   -0.005411   0.004802  -0.000003  -0.000578   0.004441
     5  H    0.004799  -0.005416  -0.000002   0.004446  -0.000578
     6  C   -0.054795  -0.054883   0.389983   0.399760   0.399675
     7  H    0.528714  -0.032755  -0.003254   0.004806  -0.005415
     8  H   -0.032755   0.528880  -0.003254  -0.005420   0.004802
     9  H   -0.003254  -0.003254   0.506401  -0.025846  -0.025850
    10  H    0.004806  -0.005420  -0.025846   0.507933  -0.030431
    11  H   -0.005415   0.004802  -0.025850  -0.030431   0.507967
 Mulliken charges:
               1
     1  C   -0.679509
     2  C   -0.331810
     3  H    0.211238
     4  H    0.211895
     5  H    0.211564
     6  C   -0.679537
     7  H    0.210902
     8  H    0.210736
     9  H    0.210959
    10  H    0.211787
    11  H    0.211773
 Sum of Mulliken charges =  -0.00000
 Mulliken charges with hydrogens summed into heavy atoms:
               1
     1  C   -0.044811
     2  C    0.089828
     6  C   -0.045018
 Electronic spatial extent (au):  <R**2>=            225.2756
 Charge=             -0.0000 electrons
 Dipole moment (field-independent basis, Debye):
    X=             -0.0003    Y=              0.1062    Z=             -0.0014  Tot=              0.1062
 Quadrupole moment (field-independent basis, Debye-Ang):
   XX=            -22.9911   YY=            -22.3944   ZZ=            -21.7130
   XY=             -0.0013   XZ=              0.0022   YZ=             -0.0007
 Traceless Quadrupole moment (field-independent basis, Debye-Ang):
   XX=             -0.6250   YY=             -0.0282   ZZ=              0.6532
   XY=             -0.0013   XZ=              0.0022   YZ=             -0.0007
 Octapole moment (field-independent basis, Debye-Ang**2):
  XXX=             -0.0122  YYY=              0.4267  ZZZ=             -0.0049  XYY=             -0.0044
  XXY=              1.8923  XXZ=             -0.0057  XZZ=              0.0033  YZZ=             -0.5215
  YYZ=             -0.0026  XYZ=             -0.0007
 Hexadecapole moment (field-independent basis, Debye-Ang**3):
 XXXX=           -208.4698 YYYY=            -77.4209 ZZZZ=            -47.9621 XXXY=             -0.0140
 XXXZ=              0.0154 YYYX=             -0.0010 YYYZ=             -0.0015 ZZZX=              0.0078
 ZZZY=              0.0004 XXYY=            -46.7732 XXZZ=            -43.4873 YYZZ=            -18.6199
 XXYZ=              0.0016 YYXZ=              0.0025 ZZXY=             -0.0042
 N-N= 8.256416274622D+01 E-N=-4.393459147816D+02  KE= 1.176151325558D+02
 There are a total of      250426 grid points.
 ElSum from          density=       26.0000002297
 ElSum from atomic densities=       25.9999990632

 Hirshfeld populations at iteration   1 (CX, CA, CB, DipXYZ):
               1          2          3          4          5          6
     1  C    0.000000   3.047176   3.047176   0.015242   0.010779  -0.000143
     2  C    0.000000   3.028172   3.028172  -0.000109  -0.012239  -0.000130
     3  H    0.000002   0.484502   0.484502  -0.101770   0.085256  -0.000092
     4  H    0.000001   0.484733   0.484733   0.000950  -0.071635  -0.109472
     5  H    0.000001   0.484719   0.484719   0.001106  -0.071590   0.109290
     6  C    0.000000   3.047152   3.047152  -0.015473   0.010545  -0.000037
     7  H    0.000001   0.484785   0.484785   0.000024   0.069923  -0.107431
     8  H    0.000001   0.484793   0.484793   0.000034   0.069796   0.107348
     9  H    0.000002   0.484535   0.484535   0.101592   0.085061  -0.000003
    10  H    0.000001   0.484717   0.484717  -0.000915  -0.071461   0.109567
    11  H    0.000001   0.484716   0.484716  -0.000947  -0.071458  -0.109569
       Tot   0.000013  13.000000  13.000000  -0.000264   0.032975  -0.000673

 Dip from Atomic Chgs              0.000128   0.008805   0.000132
         Total Dipole             -0.000136   0.041781  -0.000540

 Hirshfeld charges, spin densities, dipoles, and CM5 charges using IRadAn=      5:
              Q-H        S-H        Dx         Dy         Dz        Q-CM5   
     1  C   -0.094352   0.000000   0.015242   0.010779  -0.000143  -0.237076
     2  C   -0.056343   0.000000  -0.000109  -0.012239  -0.000130  -0.164501
     3  H    0.030996   0.000000  -0.101770   0.085256  -0.000092   0.079264
     4  H    0.030534   0.000000   0.000950  -0.071635  -0.109472   0.079418
     5  H    0.030562   0.000000   0.001106  -0.071590   0.109290   0.079299
     6  C   -0.094303   0.000000  -0.015473   0.010545  -0.000037  -0.236910
     7  H    0.030429   0.000000   0.000024   0.069923  -0.107431   0.081398
     8  H    0.030413   0.000000   0.000034   0.069796   0.107348   0.081288
     9  H    0.030931   0.000000   0.101592   0.085061  -0.000003   0.079048
    10  H    0.030565   0.000000  -0.000915  -0.071461   0.109567   0.079385
    11  H    0.030567   0.000000  -0.000947  -0.071458  -0.109569   0.079387
       Tot  -0.000000   0.000000  -0.000264   0.032975  -0.000673  -0.000000
 Hirshfeld charges with hydrogens summed into heavy atoms:
              Q-H       Q-CM5   
     1  C   -0.002260   0.000905
     2  C    0.004499  -0.001815
     6  C   -0.002240   0.000910
 
 EQQ= 0.000000000000E+00 EQD= 0.000000000000E+00 EDD=-0.140803437927E-02
 EQQ+QD+DD=-0.140803437927E-02
 
 Merz-Kollman atomic radii used.

 **********************************************************************

            Electrostatic Properties Using The SCF Density

 **********************************************************************

       Atomic Center    1 is at  -1.248520 -0.260601 -0.000077
       Atomic Center    2 is at   0.000211  0.584820 -0.000077
       Atomic Center    3 is at  -2.157052  0.387478 -0.000077
       Atomic Center    4 is at  -1.280745 -0.914007 -0.904077
       Atomic Center    5 is at  -1.280184 -0.914835  0.904923
       Atomic Center    6 is at   1.247976 -0.261090 -0.000077
       Atomic Center    7 is at   0.000445  1.251588 -0.902077
       Atomic Center    8 is at   0.000445  1.251588  0.902923
       Atomic Center    9 is at   2.157794  0.387485 -0.000077
       Atomic Center   10 is at   1.280649 -0.914033  0.904923
       Atomic Center   11 is at   1.280649 -0.914033 -0.905077
     589 points will be used for fitting atomic charges
 Fitting point charges to electrostatic potential
 Charges from ESP fit, RMS=   0.00178 RRMS=   0.74430:
 ESP charges:
               1
     1  C   -0.306789
     2  C    0.371393
     3  H    0.050861
     4  H    0.067464
     5  H    0.067169
     6  C   -0.309359
     7  H   -0.063861
     8  H   -0.063942
     9  H    0.051984
    10  H    0.067575
    11  H    0.067503
 Sum of ESP charges =  -0.00000
 ESP charges with hydrogens summed into heavy atoms:
               1
     1  C   -0.121295
     2  C    0.243591
     6  C   -0.122296
 Charge=  -0.00000 Dipole=     0.0002     0.0540    -0.0013 Tot=     0.0540
 -----------------------------------------------------------------

              Electrostatic Properties (Atomic Units)

 -----------------------------------------------------------------
    Center     Electric         -------- Electric Field --------
               Potential          X             Y             Z
 -----------------------------------------------------------------
    1 Atom    -14.738728
    2 Atom    -14.730935
    3 Atom     -1.118769
    4 Atom     -1.118083
    5 Atom     -1.117968
    6 Atom    -14.738631
    7 Atom     -1.123106
    8 Atom     -1.123067
    9 Atom     -1.118706
   10 Atom     -1.117997
   11 Atom     -1.117994
 -----------------------------------------------------------------
 ******************************Gaussian NBO Version 3.1******************************
             N A T U R A L   A T O M I C   O R B I T A L   A N D
          N A T U R A L   B O N D   O R B I T A L   A N A L Y S I S
 ******************************Gaussian NBO Version 3.1******************************

       /RESON  / : Allow strongly delocalized NBO set
       /BNDIDX / : Print bond indices based on the NAO density matrix

 Analyzing the SCF density

 Job title: propane                                                         

 Storage needed:     16434 in NPA,     21675 in NBO (3932159285 available)
 GSVD:  LWork=        3289 too small for GESVD, short by         521 words or         521 for optimal perf.


 NATURAL POPULATIONS:  Natural atomic orbital occupancies 
                                                          
   NAO  Atom  No  lang   Type(AO)    Occupancy      Energy
 ----------------------------------------------------------
     1    C    1  S      Cor( 1S)     1.99949      -9.76171
     2    C    1  S      Val( 2S)     1.11572      -0.25828
     3    C    1  S      Ryd( 4S)     0.00047       0.88851
     4    C    1  S      Ryd( 3S)     0.00030       0.86470
     5    C    1  S      Ryd( 5S)     0.00000       3.99128
     6    C    1  px     Val( 2p)     1.14403      -0.07343
     7    C    1  px     Ryd( 4p)     0.00161       0.60150
     8    C    1  px     Ryd( 3p)     0.00022       0.21111
     9    C    1  py     Val( 2p)     1.20179      -0.07648
    10    C    1  py     Ryd( 4p)     0.00132       0.60438
    11    C    1  py     Ryd( 3p)     0.00002       0.24088
    12    C    1  pz     Val( 2p)     1.25400      -0.08066
    13    C    1  pz     Ryd( 4p)     0.00082       0.61441
    14    C    1  pz     Ryd( 3p)     0.00001       0.24842
    15    C    1  dxy    Ryd( 3d)     0.00067       2.17026
    16    C    1  dxz    Ryd( 3d)     0.00016       1.74528
    17    C    1  dyz    Ryd( 3d)     0.00097       2.09956
    18    C    1  dx2y2  Ryd( 3d)     0.00041       1.84827
    19    C    1  dz2    Ryd( 3d)     0.00052       2.02543

    20    C    2  S      Cor( 1S)     1.99941      -9.76247
    21    C    2  S      Val( 2S)     1.04560      -0.24573
    22    C    2  S      Ryd( 4S)     0.00085       1.10601
    23    C    2  S      Ryd( 3S)     0.00046       0.83035
    24    C    2  S      Ryd( 5S)     0.00000       3.99566
    25    C    2  px     Val( 2p)     1.04619      -0.06855
    26    C    2  px     Ryd( 4p)     0.00154       0.55352
    27    C    2  px     Ryd( 3p)     0.00016       0.22888
    28    C    2  py     Val( 2p)     1.16005      -0.07903
    29    C    2  py     Ryd( 4p)     0.00084       0.55883
    30    C    2  py     Ryd( 3p)     0.00011       0.24246
    31    C    2  pz     Val( 2p)     1.25233      -0.08468
    32    C    2  pz     Ryd( 4p)     0.00243       0.71869
    33    C    2  pz     Ryd( 3p)     0.00001       0.29703
    34    C    2  dxy    Ryd( 3d)     0.00059       2.24236
    35    C    2  dxz    Ryd( 3d)     0.00030       1.78404
    36    C    2  dyz    Ryd( 3d)     0.00113       2.10697
    37    C    2  dx2y2  Ryd( 3d)     0.00056       1.92201
    38    C    2  dz2    Ryd( 3d)     0.00052       2.05828

    39    H    3  S      Val( 1S)     0.74981       0.06523
    40    H    3  S      Ryd( 2S)     0.00038       0.65148

    41    H    4  S      Val( 1S)     0.75730       0.06073
    42    H    4  S      Ryd( 2S)     0.00065       0.66245

    43    H    5  S      Val( 1S)     0.75737       0.05975
    44    H    5  S      Ryd( 2S)     0.00065       0.66310

    45    C    6  S      Cor( 1S)     1.99949      -9.76179
    46    C    6  S      Val( 2S)     1.11574      -0.25840
    47    C    6  S      Ryd( 4S)     0.00047       0.88802
    48    C    6  S      Ryd( 3S)     0.00030       0.86533
    49    C    6  S      Ryd( 5S)     0.00000       3.99095
    50    C    6  px     Val( 2p)     1.14409      -0.07364
    51    C    6  px     Ryd( 4p)     0.00162       0.60115
    52    C    6  px     Ryd( 3p)     0.00022       0.21153
    53    C    6  py     Val( 2p)     1.20170      -0.07659
    54    C    6  py     Ryd( 4p)     0.00133       0.60368
    55    C    6  py     Ryd( 3p)     0.00002       0.24121
    56    C    6  pz     Val( 2p)     1.25409      -0.08060
    57    C    6  pz     Ryd( 4p)     0.00082       0.61413
    58    C    6  pz     Ryd( 3p)     0.00001       0.24890
    59    C    6  dxy    Ryd( 3d)     0.00067       2.16989
    60    C    6  dxz    Ryd( 3d)     0.00016       1.74519
    61    C    6  dyz    Ryd( 3d)     0.00097       2.09948
    62    C    6  dx2y2  Ryd( 3d)     0.00041       1.84821
    63    C    6  dz2    Ryd( 3d)     0.00052       2.02564

    64    H    7  S      Val( 1S)     0.75358       0.05044
    65    H    7  S      Ryd( 2S)     0.00111       0.68387

    66    H    8  S      Val( 1S)     0.75366       0.04984
    67    H    8  S      Ryd( 2S)     0.00111       0.68431

    68    H    9  S      Val( 1S)     0.74987       0.06423
    69    H    9  S      Ryd( 2S)     0.00038       0.65215

    70    H   10  S      Val( 1S)     0.75725       0.06037
    71    H   10  S      Ryd( 2S)     0.00065       0.66266

    72    H   11  S      Val( 1S)     0.75727       0.06036
    73    H   11  S      Ryd( 2S)     0.00065       0.66265

 WARNING:  Population inversion found on atom  C    1
           Population inversion found on atom  C    2
           Population inversion found on atom  C    6


 Summary of Natural Population Analysis:                  
                                                          
                                       Natural Population 
                Natural  -----------------------------------------------
    Atom  No    Charge         Core      Valence    Rydberg      Total
 -----------------------------------------------------------------------
      C    1   -0.72256      1.99949     4.71554    0.00752     6.72256
      C    2   -0.51308      1.99941     4.50417    0.00950     6.51308
      H    3    0.24980      0.00000     0.74981    0.00038     0.75020
      H    4    0.24205      0.00000     0.75730    0.00065     0.75795
      H    5    0.24197      0.00000     0.75737    0.00065     0.75803
      C    6   -0.72265      1.99949     4.71562    0.00753     6.72265
      H    7    0.24531      0.00000     0.75358    0.00111     0.75469
      H    8    0.24523      0.00000     0.75366    0.00111     0.75477
      H    9    0.24974      0.00000     0.74987    0.00038     0.75026
      H   10    0.24210      0.00000     0.75725    0.00065     0.75790
      H   11    0.24208      0.00000     0.75727    0.00065     0.75792
 =======================================================================
   * Total *    0.00000      5.99839    19.97145    0.03016    26.00000

                                 Natural Population      
 --------------------------------------------------------
   Core                       5.99839 ( 99.9732% of   6)
   Valence                   19.97145 ( 99.8573% of  20)
   Natural Minimal Basis     25.96984 ( 99.8840% of  26)
   Natural Rydberg Basis      0.03016 (  0.1160% of  26)
 --------------------------------------------------------

    Atom  No          Natural Electron Configuration
 ----------------------------------------------------------------------------
      C    1      [core]2S( 1.12)2p( 3.60)
      C    2      [core]2S( 1.05)2p( 3.46)
      H    3            1S( 0.75)
      H    4            1S( 0.76)
      H    5            1S( 0.76)
      C    6      [core]2S( 1.12)2p( 3.60)
      H    7            1S( 0.75)
      H    8            1S( 0.75)
      H    9            1S( 0.75)
      H   10            1S( 0.76)
      H   11            1S( 0.76)


 Wiberg bond index matrix in the NAO basis:                                    

     Atom    1       2       3       4       5       6       7       8       9
     ---- ------  ------  ------  ------  ------  ------  ------  ------  ------
   1.  C  0.0000  1.0353  0.9218  0.9208  0.9208  0.0106  0.0027  0.0027  0.0112
   2.  C  1.0353  0.0000  0.0015  0.0030  0.0030  1.0355  0.9017  0.9017  0.0015
   3.  H  0.9218  0.0015  0.0000  0.0003  0.0003  0.0111  0.0009  0.0009  0.0012
   4.  H  0.9208  0.0030  0.0003  0.0000  0.0002  0.0010  0.0008  0.0154  0.0001
   5.  H  0.9208  0.0030  0.0003  0.0002  0.0000  0.0010  0.0154  0.0008  0.0001
   6.  C  0.0106  1.0355  0.0111  0.0010  0.0010  0.0000  0.0027  0.0027  0.9218
   7.  H  0.0027  0.9017  0.0009  0.0008  0.0154  0.0027  0.0000  0.0003  0.0009
   8.  H  0.0027  0.9017  0.0009  0.0154  0.0008  0.0027  0.0003  0.0000  0.0009
   9.  H  0.0112  0.0015  0.0012  0.0001  0.0001  0.9218  0.0009  0.0009  0.0000
  10.  H  0.0010  0.0030  0.0001  0.0000  0.0009  0.9207  0.0154  0.0008  0.0003
  11.  H  0.0010  0.0030  0.0001  0.0009  0.0000  0.9207  0.0008  0.0154  0.0003

     Atom   10      11
     ---- ------  ------
   1.  C  0.0010  0.0010
   2.  C  0.0030  0.0030
   3.  H  0.0001  0.0001
   4.  H  0.0000  0.0009
   5.  H  0.0009  0.0000
   6.  C  0.9207  0.9207
   7.  H  0.0154  0.0008
   8.  H  0.0008  0.0154
   9.  H  0.0003  0.0003
  10.  H  0.0000  0.0002
  11.  H  0.0002  0.0000


 Wiberg bond index, Totals by atom:                                            

     Atom    1
     ---- ------
   1.  C  3.8278
   2.  C  3.8893
   3.  H  0.9382
   4.  H  0.9424
   5.  H  0.9424
   6.  C  3.8278
   7.  H  0.9415
   8.  H  0.9415
   9.  H  0.9382
  10.  H  0.9424
  11.  H  0.9424


 Atom-atom overlap-weighted NAO bond order:                                    

     Atom    1       2       3       4       5       6       7       8       9
     ---- ------  ------  ------  ------  ------  ------  ------  ------  ------
   1.  C  0.0000  0.8842  0.7465  0.7454  0.7451 -0.0019 -0.0003 -0.0003  0.0066
   2.  C  0.8842  0.0000  0.0047 -0.0005 -0.0006  0.8848  0.7377  0.7375  0.0047
   3.  H  0.7465  0.0047  0.0000  0.0010  0.0010  0.0066 -0.0031 -0.0031 -0.0001
   4.  H  0.7454 -0.0005  0.0010  0.0000  0.0007 -0.0028 -0.0029  0.0054  0.0001
   5.  H  0.7451 -0.0006  0.0010  0.0007  0.0000 -0.0028  0.0054 -0.0029  0.0001
   6.  C -0.0019  0.8848  0.0066 -0.0028 -0.0028  0.0000 -0.0003 -0.0003  0.7460
   7.  H -0.0003  0.7377 -0.0031 -0.0029  0.0054 -0.0003  0.0000  0.0002 -0.0031
   8.  H -0.0003  0.7375 -0.0031  0.0054 -0.0029 -0.0003  0.0002  0.0000 -0.0031
   9.  H  0.0066  0.0047 -0.0001  0.0001  0.0001  0.7460 -0.0031 -0.0031  0.0000
  10.  H -0.0028 -0.0005  0.0001 -0.0001  0.0038  0.7453  0.0054 -0.0029  0.0009
  11.  H -0.0028 -0.0005  0.0001  0.0038 -0.0001  0.7453 -0.0029  0.0054  0.0009

     Atom   10      11
     ---- ------  ------
   1.  C -0.0028 -0.0028
   2.  C -0.0005 -0.0005
   3.  H  0.0001  0.0001
   4.  H -0.0001  0.0038
   5.  H  0.0038 -0.0001
   6.  C  0.7453  0.7453
   7.  H  0.0054 -0.0029
   8.  H -0.0029  0.0054
   9.  H  0.0009  0.0009
  10.  H  0.0000  0.0007
  11.  H  0.0007  0.0000


 Atom-atom overlap-weighted NAO bond order, Totals by atom:                    

     Atom    1
     ---- ------
   1.  C  3.1198
   2.  C  3.2514
   3.  H  0.7535
   4.  H  0.7500
   5.  H  0.7496
   6.  C  3.1200
   7.  H  0.7361
   8.  H  0.7358
   9.  H  0.7529
  10.  H  0.7499
  11.  H  0.7499


 MO bond order:                                                                

     Atom    1       2       3       4       5       6       7       8       9
     ---- ------  ------  ------  ------  ------  ------  ------  ------  ------
   1.  C  0.0000 -0.9125  0.2435 -0.6900  0.6316  0.2126  0.0798  0.0690  0.1601
   2.  C -0.9125  0.0000 -0.0631  0.0211 -0.0751  0.4198  0.2681  1.6634 -0.0041
   3.  H  0.2435 -0.0631  0.0000  0.0261  0.0259 -0.0032 -0.0264 -0.0264 -0.0191
   4.  H -0.6900  0.0211  0.0261  0.0000  0.0232  0.0091 -0.0244  0.0861  0.0079
   5.  H  0.6316 -0.0751  0.0259  0.0232  0.0000 -0.0083  0.0861 -0.0245  0.0079
   6.  C  0.2126  0.4198 -0.0032  0.0091 -0.0083  0.0000  0.0045 -0.0363  1.6581
   7.  H  0.0798  0.2681 -0.0264 -0.0244  0.0861  0.0045  0.0000  0.0258 -0.0265
   8.  H  0.0690  1.6634 -0.0264  0.0861 -0.0245 -0.0363  0.0258  0.0000 -0.0265
   9.  H  0.1601 -0.0041 -0.0191  0.0079  0.0079  1.6581 -0.0265 -0.0265  0.0000
  10.  H -0.0388 -0.0080  0.0078 -0.0033  0.0156  0.6721  0.0861 -0.0245  0.0260
  11.  H -0.0226  0.0591  0.0078  0.0155 -0.0033 -0.6536 -0.0244  0.0862  0.0260

     Atom   10      11
     ---- ------  ------
   1.  C -0.0388 -0.0226
   2.  C -0.0080  0.0591
   3.  H  0.0078  0.0078
   4.  H -0.0033  0.0155
   5.  H  0.0156 -0.0033
   6.  C  0.6721 -0.6536
   7.  H  0.0861 -0.0244
   8.  H -0.0245  0.0862
   9.  H  0.0260  0.0260
  10.  H  0.0000  0.0231
  11.  H  0.0231  0.0000


 MO atomic valencies:                                                          

     Atom    1
     ---- ------
   1.  C -0.2673
   2.  C  1.3687
   3.  H  0.1729
   4.  H -0.5288
   5.  H  0.6791
   6.  C  2.2748
   7.  H  0.4487
   8.  H  1.7922
   9.  H  1.8097
  10.  H  0.7561
  11.  H -0.4861


 NATURAL BOND ORBITAL ANALYSIS:

                       Occupancies       Lewis Structure    Low   High
           Occ.    -------------------  -----------------   occ   occ
  Cycle   Thresh.   Lewis   Non-Lewis     CR  BD  3C  LP    (L)   (NL)   Dev
 =============================================================================
   1(1)    1.90    25.87239   0.12761      3  10   0   0     0      0    0.04
 -----------------------------------------------------------------------------

 Structure accepted: No low occupancy Lewis orbitals

 --------------------------------------------------------
   Core                      5.99839 ( 99.973% of   6)
   Valence Lewis            19.87400 ( 99.370% of  20)
  ==================       ============================
   Total Lewis              25.87239 ( 99.509% of  26)
  -----------------------------------------------------
   Valence non-Lewis         0.10746 (  0.413% of  26)
   Rydberg non-Lewis         0.02015 (  0.077% of  26)
  ==================       ============================
   Total non-Lewis           0.12761 (  0.491% of  26)
 --------------------------------------------------------


       (Occupancy)   Bond orbital/ Coefficients/ Hybrids
 ---------------------------------------------------------------------------------
     1. (1.99154) BD ( 1) C   1 - C   2  
                ( 49.43%)   0.7031* C   1 s( 28.76%)p 2.48( 71.22%)d 0.00(  0.03%)
                                            0.0001  0.5361  0.0008 -0.0115  0.0010
                                            0.6964 -0.0047 -0.0100  0.4763 -0.0149
                                           -0.0012  0.0001  0.0000 -0.0000  0.0130
                                           -0.0000 -0.0000  0.0052 -0.0084
                ( 50.57%)   0.7111* C   2 s( 27.83%)p 2.59( 72.14%)d 0.00(  0.03%)
                                            0.0001  0.5274 -0.0128  0.0014  0.0002
                                           -0.7070  0.0165 -0.0047 -0.4704 -0.0042
                                           -0.0038  0.0000  0.0000  0.0000  0.0144
                                            0.0000  0.0000  0.0037 -0.0085
     2. (1.98918) BD ( 1) C   1 - H   3  
                ( 62.50%)   0.7906* C   1 s( 23.70%)p 3.22( 76.25%)d 0.00(  0.05%)
                                            0.0000 -0.4868 -0.0017 -0.0006  0.0006
                                            0.7161 -0.0008  0.0041 -0.4996 -0.0134
                                            0.0011 -0.0003  0.0000  0.0000  0.0182
                                           -0.0000  0.0000 -0.0053  0.0107
                ( 37.50%)   0.6124* H   3 s(100.00%)
                                           -1.0000 -0.0008
     3. (1.98916) BD ( 1) C   1 - H   4  
                ( 62.24%)   0.7890* C   1 s( 23.79%)p 3.20( 76.16%)d 0.00(  0.05%)
                                            0.0000 -0.4877  0.0008 -0.0044  0.0001
                                            0.0254 -0.0145  0.0022  0.5112 -0.0024
                                            0.0014  0.7067  0.0056  0.0014 -0.0001
                                           -0.0003 -0.0180  0.0064 -0.0108
                ( 37.76%)   0.6145* H   4 s(100.00%)
                                           -1.0000 -0.0019
     4. (1.98916) BD ( 1) C   1 - H   5  
                ( 62.24%)   0.7889* C   1 s( 23.75%)p 3.21( 76.21%)d 0.00(  0.05%)
                                            0.0000 -0.4873  0.0008 -0.0045  0.0001
                                            0.0252 -0.0145  0.0022  0.5112 -0.0022
                                            0.0014 -0.7070 -0.0058 -0.0014 -0.0001
                                            0.0003  0.0180  0.0064 -0.0108
                ( 37.76%)   0.6145* H   5 s(100.00%)
                                           -1.0000 -0.0019
     5. (1.99157) BD ( 1) C   2 - C   6  
                ( 50.57%)   0.7111* C   2 s( 27.85%)p 2.59( 72.12%)d 0.00(  0.03%)
                                            0.0001  0.5276 -0.0129  0.0014  0.0002
                                            0.7065 -0.0165  0.0047 -0.4708 -0.0041
                                           -0.0039  0.0000  0.0000  0.0000 -0.0145
                                           -0.0000  0.0000  0.0037 -0.0085
                ( 49.43%)   0.7031* C   6 s( 28.79%)p 2.47( 71.19%)d 0.00(  0.03%)
                                            0.0001  0.5364  0.0008 -0.0115  0.0010
                                           -0.6960  0.0048  0.0100  0.4766 -0.0150
                                           -0.0012  0.0000 -0.0000 -0.0000 -0.0130
                                            0.0000 -0.0000  0.0052 -0.0083
     6. (1.97798) BD ( 1) C   2 - H   7  
                ( 62.46%)   0.7903* C   2 s( 22.20%)p 3.50( 77.75%)d 0.00(  0.05%)
                                           -0.0001  0.4710  0.0113 -0.0013 -0.0002
                                            0.0001  0.0000  0.0000  0.5274 -0.0018
                                           -0.0052 -0.7065 -0.0156  0.0017  0.0000
                                           -0.0000 -0.0180 -0.0063  0.0117
                ( 37.54%)   0.6127* H   7 s(100.00%)
                                            1.0000  0.0033
     7. (1.97797) BD ( 1) C   2 - H   8  
                ( 62.45%)   0.7903* C   2 s( 22.16%)p 3.51( 77.78%)d 0.00(  0.05%)
                                           -0.0001  0.4707  0.0114 -0.0013 -0.0002
                                            0.0001  0.0000 -0.0000  0.5271 -0.0018
                                           -0.0052  0.7069  0.0158 -0.0018  0.0000
                                            0.0000  0.0180 -0.0063  0.0117
                ( 37.55%)   0.6128* H   8 s(100.00%)
                                            1.0000  0.0033
     8. (1.98913) BD ( 1) C   6 - H   9  
                ( 62.50%)   0.7906* C   6 s( 23.63%)p 3.23( 76.32%)d 0.00(  0.05%)
                                           -0.0000  0.4861  0.0016  0.0007 -0.0007
                                            0.7165 -0.0006  0.0041  0.4997  0.0136
                                           -0.0010 -0.0000 -0.0000 -0.0000  0.0182
                                           -0.0000 -0.0000  0.0053 -0.0107
                ( 37.50%)   0.6124* H   9 s(100.00%)
                                            1.0000  0.0008
     9. (1.98916) BD ( 1) C   6 - H  10  
                ( 62.25%)   0.7890* C   6 s( 23.79%)p 3.20( 76.16%)d 0.00(  0.05%)
                                            0.0000 -0.4877  0.0008 -0.0045  0.0001
                                           -0.0256  0.0145 -0.0022  0.5110 -0.0024
                                            0.0014 -0.7068 -0.0057 -0.0013  0.0001
                                           -0.0003  0.0180  0.0064 -0.0108
                ( 37.75%)   0.6144* H  10 s(100.00%)
                                           -1.0000 -0.0019
    10. (1.98915) BD ( 1) C   6 - H  11  
                ( 62.25%)   0.7890* C   6 s( 23.79%)p 3.20( 76.16%)d 0.00(  0.05%)
                                            0.0000 -0.4877  0.0008 -0.0045  0.0001
                                           -0.0256  0.0145 -0.0022  0.5110 -0.0024
                                            0.0014  0.7069  0.0057  0.0013  0.0001
                                            0.0003 -0.0180  0.0064 -0.0108
                ( 37.75%)   0.6144* H  11 s(100.00%)
                                           -1.0000 -0.0019
    11. (1.99949) CR ( 1) C   1           s(100.00%)p 0.00(  0.00%)
                                            1.0000 -0.0000 -0.0000  0.0000 -0.0000
                                           -0.0001  0.0000  0.0000 -0.0001  0.0000
                                            0.0000 -0.0000  0.0000  0.0000 -0.0000
                                            0.0000  0.0000 -0.0000  0.0000
    12. (1.99941) CR ( 1) C   2           s(100.00%)p 0.00(  0.00%)
                                            1.0000  0.0000  0.0000 -0.0000 -0.0000
                                           -0.0000  0.0000 -0.0000  0.0002  0.0000
                                           -0.0000 -0.0000  0.0000 -0.0000  0.0000
                                            0.0000 -0.0000 -0.0000  0.0000
    13. (1.99949) CR ( 1) C   6           s(100.00%)p 0.00(  0.00%)
                                            1.0000 -0.0000 -0.0000  0.0000 -0.0000
                                            0.0001 -0.0000 -0.0000 -0.0001  0.0000
                                            0.0000 -0.0000  0.0000  0.0000  0.0000
                                           -0.0000  0.0000 -0.0000  0.0000
    14. (0.00219) RY*( 1) C   1           s(  5.35%)p14.84( 79.38%)d 2.86( 15.27%)
                                            0.0000 -0.0062 -0.1078  0.2020  0.0319
                                           -0.0103  0.6750  0.1193  0.0187 -0.5668
                                            0.0475 -0.0001  0.0000  0.0001  0.1809
                                           -0.0000 -0.0001 -0.3343  0.0905
    15. (0.00114) RY*( 2) C   1           s(  0.00%)p 1.00( 67.58%)d 0.48( 32.42%)
                                            0.0000 -0.0001  0.0003  0.0002 -0.0000
                                           -0.0000 -0.0001 -0.0002  0.0001 -0.0000
                                           -0.0004 -0.0175  0.8197 -0.0598 -0.0001
                                           -0.3767 -0.4270 -0.0001 -0.0000
    16. (0.00052) RY*( 3) C   1           s( 80.50%)p 0.21( 16.71%)d 0.03(  2.78%)
                                           -0.0000 -0.0018  0.8732  0.2063  0.0080
                                            0.0083  0.2258  0.1316  0.0073  0.3132
                                           -0.0248  0.0000 -0.0001  0.0000  0.0867
                                            0.0002  0.0001 -0.1424 -0.0061
    17. (0.00030) RY*( 4) C   1           s( 18.78%)p 4.20( 78.97%)d 0.12(  2.24%)
                                            0.0000  0.0081  0.3834 -0.1975  0.0420
                                           -0.0179 -0.5576  0.1486 -0.0114 -0.6755
                                            0.0062 -0.0000 -0.0002 -0.0001  0.0382
                                           -0.0001 -0.0001 -0.1447  0.0019
    18. (0.00007) RY*( 5) C   1           s(  5.40%)p15.25( 82.32%)d 2.28( 12.28%)
    19. (0.00000) RY*( 6) C   1           s( 87.19%)p 0.14( 12.31%)d 0.01(  0.50%)
    20. (0.00000) RY*( 7) C   1           s(  0.08%)p99.99( 99.70%)d 2.83(  0.22%)
    21. (0.00000) RY*( 8) C   1           s( 99.01%)p 0.01(  0.83%)d 0.00(  0.16%)
    22. (0.00000) RY*( 9) C   1           s(  0.00%)p 1.00( 99.88%)d 0.00(  0.12%)
    23. (0.00001) RY*(10) C   1           s(  2.10%)p 5.05( 10.63%)d41.47( 87.27%)
    24. (0.00000) RY*(11) C   1           s(  0.00%)p 1.00( 17.45%)d 4.73( 82.55%)
    25. (0.00001) RY*(12) C   1           s(  0.00%)p 1.00( 15.15%)d 5.60( 84.85%)
    26. (0.00000) RY*(13) C   1           s(  1.46%)p12.55( 18.30%)d55.00( 80.24%)
    27. (0.00000) RY*(14) C   1           s(  0.13%)p 7.29(  0.93%)d99.99( 98.94%)
    28. (0.00241) RY*( 1) C   2           s(  0.00%)p 1.00( 82.90%)d 0.21( 17.10%)
                                            0.0000  0.0001 -0.0001  0.0003  0.0000
                                            0.0000  0.0002  0.0001  0.0000  0.0002
                                            0.0003  0.0307 -0.9099 -0.0141 -0.0001
                                            0.0003 -0.4135 -0.0000 -0.0001
    29. (0.00138) RY*( 2) C   2           s( 13.46%)p 3.99( 53.69%)d 2.44( 32.84%)
                                           -0.0000  0.0040  0.3180  0.1790  0.0386
                                           -0.0001 -0.0033  0.0003 -0.0175  0.7324
                                            0.0137 -0.0001  0.0001 -0.0001  0.0004
                                            0.0000  0.0002 -0.5494  0.1631
    30. (0.00104) RY*( 3) C   2           s(  0.00%)p 1.00( 94.94%)d 0.05(  5.06%)
                                           -0.0000  0.0000  0.0022  0.0008  0.0001
                                            0.0173  0.9684  0.1062 -0.0001  0.0012
                                           -0.0000 -0.0000  0.0001 -0.0001 -0.2249
                                            0.0002  0.0002 -0.0025  0.0009
    31. (0.00046) RY*( 4) C   2           s( 89.20%)p 0.04(  3.58%)d 0.08(  7.22%)
                                            0.0000  0.0019 -0.1328  0.9349 -0.0187
                                            0.0000  0.0004 -0.0011  0.0098  0.0368
                                            0.1854 -0.0000  0.0002  0.0001  0.0002
                                            0.0008  0.0004  0.2617 -0.0606
    32. (0.00030) RY*( 5) C   2           s(  0.00%)p 0.00(  0.00%)d 1.00(100.00%)
                                            0.0000  0.0000 -0.0005  0.0006  0.0001
                                           -0.0000 -0.0001  0.0010  0.0000  0.0005
                                            0.0004  0.0000  0.0002 -0.0007 -0.0008
                                           -1.0000 -0.0010  0.0005 -0.0000
    33. (0.00020) RY*( 6) C   2           s( 52.67%)p 0.71( 37.57%)d 0.19(  9.76%)
                                           -0.0000 -0.0041  0.6830  0.2396 -0.0524
                                            0.0000 -0.0017 -0.0003 -0.0208 -0.5882
                                           -0.1712 -0.0000 -0.0001 -0.0001  0.0003
                                           -0.0007 -0.0001 -0.2730  0.1520
    34. (0.00020) RY*( 7) C   2           s(  0.00%)p 1.00( 48.42%)d 1.07( 51.58%)
                                            0.0000 -0.0000 -0.0001  0.0007  0.0002
                                           -0.0246 -0.2380  0.6534  0.0000 -0.0005
                                            0.0005  0.0000  0.0002 -0.0001 -0.7182
                                            0.0013 -0.0003  0.0007 -0.0002
    35. (0.00004) RY*( 8) C   2           s(  0.00%)p 1.00( 56.68%)d 0.76( 43.32%)
    36. (0.00000) RY*( 9) C   2           s(  0.00%)p 1.00(100.00%)d 0.00(  0.00%)
    37. (0.00000) RY*(10) C   2           s( 42.49%)p 0.23(  9.87%)d 1.12( 47.64%)
    38. (0.00000) RY*(11) C   2           s(  2.09%)p45.24( 94.76%)d 1.50(  3.14%)
    39. (0.00000) RY*(12) C   2           s(  0.00%)p 1.00( 17.17%)d 4.83( 82.83%)
    40. (0.00000) RY*(13) C   2           s( 99.64%)p 0.00(  0.35%)d 0.00(  0.02%)
    41. (0.00000) RY*(14) C   2           s(  0.39%)p 0.70(  0.28%)d99.99( 99.33%)
    42. (0.00038) RY*( 1) H   3           s(100.00%)
                                           -0.0008  1.0000
    43. (0.00066) RY*( 1) H   4           s(100.00%)
                                           -0.0019  1.0000
    44. (0.00065) RY*( 1) H   5           s(100.00%)
                                           -0.0019  1.0000
    45. (0.00219) RY*( 1) C   6           s(  5.33%)p14.91( 79.40%)d 2.87( 15.28%)
                                            0.0000 -0.0060 -0.1072  0.2017  0.0321
                                            0.0104 -0.6754 -0.1189  0.0188 -0.5665
                                            0.0477 -0.0000  0.0000  0.0000 -0.1809
                                            0.0001 -0.0001 -0.3344  0.0907
    46. (0.00114) RY*( 2) C   6           s(  0.00%)p 1.00( 67.57%)d 0.48( 32.43%)
                                           -0.0000 -0.0000  0.0002 -0.0000  0.0000
                                            0.0000 -0.0001 -0.0000  0.0000 -0.0000
                                            0.0002  0.0175 -0.8195  0.0611 -0.0000
                                           -0.3766  0.4272 -0.0001  0.0001
    47. (0.00052) RY*( 3) C   6           s( 80.12%)p 0.21( 17.14%)d 0.03(  2.74%)
                                           -0.0000 -0.0019  0.8709  0.2067  0.0077
                                           -0.0084 -0.2291 -0.1311  0.0074  0.3178
                                           -0.0252 -0.0000  0.0003 -0.0000 -0.0858
                                           -0.0000  0.0000 -0.1416 -0.0060
    48. (0.00030) RY*( 4) C   6           s( 19.13%)p 4.11( 78.59%)d 0.12(  2.27%)
                                            0.0000  0.0081  0.3885 -0.1965  0.0420
                                            0.0180  0.5562 -0.1512 -0.0114 -0.6733
                                            0.0066 -0.0000  0.0001  0.0001 -0.0387
                                            0.0000 -0.0000 -0.1457  0.0018
    49. (0.00007) RY*( 5) C   6           s(  5.46%)p15.07( 82.25%)d 2.25( 12.29%)
    50. (0.00000) RY*( 6) C   6           s( 87.20%)p 0.14( 12.31%)d 0.01(  0.49%)
    51. (0.00000) RY*( 7) C   6           s(  0.08%)p99.99( 99.70%)d 2.76(  0.22%)
    52. (0.00000) RY*( 8) C   6           s( 99.01%)p 0.01(  0.83%)d 0.00(  0.16%)
    53. (0.00000) RY*( 9) C   6           s(  0.00%)p 1.00( 99.88%)d 0.00(  0.12%)
    54. (0.00001) RY*(10) C   6           s(  2.10%)p 5.07( 10.64%)d41.56( 87.26%)
    55. (0.00000) RY*(11) C   6           s(  0.00%)p 1.00( 17.45%)d 4.73( 82.55%)
    56. (0.00001) RY*(12) C   6           s(  0.00%)p 1.00( 15.16%)d 5.59( 84.84%)
    57. (0.00000) RY*(13) C   6           s(  1.46%)p12.55( 18.30%)d55.02( 80.24%)
    58. (0.00000) RY*(14) C   6           s(  0.13%)p 7.32(  0.93%)d99.99( 98.94%)
    59. (0.00112) RY*( 1) H   7           s(100.00%)
                                           -0.0033  1.0000
    60. (0.00112) RY*( 1) H   8           s(100.00%)
                                           -0.0033  1.0000
    61. (0.00038) RY*( 1) H   9           s(100.00%)
                                           -0.0008  1.0000
    62. (0.00066) RY*( 1) H  10           s(100.00%)
                                           -0.0019  1.0000
    63. (0.00066) RY*( 1) H  11           s(100.00%)
                                           -0.0019  1.0000
    64. (0.00971) BD*( 1) C   1 - C   2  
                ( 50.57%)   0.7111* C   1 s( 28.76%)p 2.48( 71.22%)d 0.00(  0.03%)
                                            0.0001  0.5361  0.0008 -0.0115  0.0010
                                            0.6964 -0.0047 -0.0100  0.4763 -0.0149
                                           -0.0012  0.0001  0.0000 -0.0000  0.0130
                                           -0.0000 -0.0000  0.0052 -0.0084
                ( 49.43%)  -0.7031* C   2 s( 27.83%)p 2.59( 72.14%)d 0.00(  0.03%)
                                            0.0001  0.5274 -0.0128  0.0014  0.0002
                                           -0.7070  0.0165 -0.0047 -0.4704 -0.0042
                                           -0.0038  0.0000  0.0000  0.0000  0.0144
                                            0.0000  0.0000  0.0037 -0.0085
    65. (0.00628) BD*( 1) C   1 - H   3  
                ( 37.50%)   0.6124* C   1 s( 23.70%)p 3.22( 76.25%)d 0.00(  0.05%)
                                           -0.0000  0.4868  0.0017  0.0006 -0.0006
                                           -0.7161  0.0008 -0.0041  0.4996  0.0134
                                           -0.0011  0.0003 -0.0000 -0.0000 -0.0182
                                            0.0000 -0.0000  0.0053 -0.0107
                ( 62.50%)  -0.7906* H   3 s(100.00%)
                                            1.0000  0.0008
    66. (0.01008) BD*( 1) C   1 - H   4  
                ( 37.76%)   0.6145* C   1 s( 23.79%)p 3.20( 76.16%)d 0.00(  0.05%)
                                           -0.0000  0.4877 -0.0008  0.0044 -0.0001
                                           -0.0254  0.0145 -0.0022 -0.5112  0.0024
                                           -0.0014 -0.7067 -0.0056 -0.0014  0.0001
                                            0.0003  0.0180 -0.0064  0.0108
                ( 62.24%)  -0.7890* H   4 s(100.00%)
                                            1.0000  0.0019
    67. (0.01011) BD*( 1) C   1 - H   5  
                ( 37.76%)   0.6145* C   1 s( 23.75%)p 3.21( 76.21%)d 0.00(  0.05%)
                                           -0.0000  0.4873 -0.0008  0.0045 -0.0001
                                           -0.0252  0.0145 -0.0022 -0.5112  0.0022
                                           -0.0014  0.7070  0.0058  0.0014  0.0001
                                           -0.0003 -0.0180 -0.0064  0.0108
                ( 62.24%)  -0.7889* H   5 s(100.00%)
                                            1.0000  0.0019
    68. (0.00966) BD*( 1) C   2 - C   6  
                ( 49.43%)   0.7031* C   2 s( 27.85%)p 2.59( 72.12%)d 0.00(  0.03%)
                                           -0.0001 -0.5276  0.0129 -0.0014 -0.0002
                                           -0.7065  0.0165 -0.0047  0.4708  0.0041
                                            0.0039 -0.0000 -0.0000 -0.0000  0.0145
                                            0.0000 -0.0000 -0.0037  0.0085
                ( 50.57%)  -0.7111* C   6 s( 28.79%)p 2.47( 71.19%)d 0.00(  0.03%)
                                           -0.0001 -0.5364 -0.0008  0.0115 -0.0010
                                            0.6960 -0.0048 -0.0100 -0.4766  0.0150
                                            0.0012 -0.0000  0.0000  0.0000  0.0130
                                           -0.0000  0.0000 -0.0052  0.0083
    69. (0.01753) BD*( 1) C   2 - H   7  
                ( 37.54%)   0.6127* C   2 s( 22.20%)p 3.50( 77.75%)d 0.00(  0.05%)
                                            0.0001 -0.4710 -0.0113  0.0013  0.0002
                                           -0.0001 -0.0000 -0.0000 -0.5274  0.0018
                                            0.0052  0.7065  0.0156 -0.0017 -0.0000
                                            0.0000  0.0180  0.0063 -0.0117
                ( 62.46%)  -0.7903* H   7 s(100.00%)
                                           -1.0000 -0.0033
    70. (0.01755) BD*( 1) C   2 - H   8  
                ( 37.55%)   0.6128* C   2 s( 22.16%)p 3.51( 77.78%)d 0.00(  0.05%)
                                            0.0001 -0.4707 -0.0114  0.0013  0.0002
                                           -0.0001 -0.0000  0.0000 -0.5271  0.0018
                                            0.0052 -0.7069 -0.0158  0.0018 -0.0000
                                           -0.0000 -0.0180  0.0063 -0.0117
                ( 62.45%)  -0.7903* H   8 s(100.00%)
                                           -1.0000 -0.0033
    71. (0.00632) BD*( 1) C   6 - H   9  
                ( 37.50%)   0.6124* C   6 s( 23.63%)p 3.23( 76.32%)d 0.00(  0.05%)
                                            0.0000 -0.4861 -0.0016 -0.0007  0.0007
                                           -0.7165  0.0006 -0.0041 -0.4997 -0.0136
                                            0.0010  0.0000  0.0000  0.0000 -0.0182
                                            0.0000  0.0000 -0.0053  0.0107
                ( 62.50%)  -0.7906* H   9 s(100.00%)
                                           -1.0000 -0.0008
    72. (0.01010) BD*( 1) C   6 - H  10  
                ( 37.75%)   0.6144* C   6 s( 23.79%)p 3.20( 76.16%)d 0.00(  0.05%)
                                           -0.0000  0.4877 -0.0008  0.0045 -0.0001
                                            0.0256 -0.0145  0.0022 -0.5110  0.0024
                                           -0.0014  0.7068  0.0057  0.0013 -0.0001
                                            0.0003 -0.0180 -0.0064  0.0108
                ( 62.25%)  -0.7890* H  10 s(100.00%)
                                            1.0000  0.0019
    73. (0.01011) BD*( 1) C   6 - H  11  
                ( 37.75%)   0.6144* C   6 s( 23.79%)p 3.20( 76.16%)d 0.00(  0.05%)
                                           -0.0000  0.4877 -0.0008  0.0045 -0.0001
                                            0.0256 -0.0145  0.0022 -0.5110  0.0024
                                           -0.0014 -0.7069 -0.0057 -0.0013 -0.0001
                                           -0.0003  0.0180 -0.0064  0.0108
                ( 62.25%)  -0.7890* H  11 s(100.00%)
                                            1.0000  0.0019


 NHO Directionality and "Bond Bending" (deviations from line of nuclear centers)

         [Thresholds for printing:  angular deviation  >  1.0 degree]
                                    hybrid p-character > 25.0%
                                    orbital occupancy  >  0.10e

                                Line of Centers        Hybrid 1              Hybrid 2
                                ---------------  -------------------   ------------------
                NBO               Theta   Phi    Theta   Phi    Dev    Theta   Phi    Dev
 ========================================================================================
    None exceeding thresholds


 Second Order Perturbation Theory Analysis of Fock Matrix in NBO Basis

     Threshold for printing:   0.50 kcal/mol
                                                                              E(2)  E(j)-E(i) F(i,j)
         Donor NBO (i)                     Acceptor NBO (j)                 kcal/mol   a.u.    a.u. 
 ===================================================================================================

 within unit  1
   1. BD (   1) C   1 - C   2        / 45. RY*(   1) C   6                    0.91    1.48    0.033
   1. BD (   1) C   1 - C   2        / 68. BD*(   1) C   2 - C   6            0.74    0.91    0.023
   1. BD (   1) C   1 - C   2        / 71. BD*(   1) C   6 - H   9            1.70    0.91    0.035
   2. BD (   1) C   1 - H   3        / 29. RY*(   2) C   2                    0.57    1.59    0.027
   2. BD (   1) C   1 - H   3        / 68. BD*(   1) C   2 - C   6            3.14    0.79    0.045
   3. BD (   1) C   1 - H   4        / 70. BD*(   1) C   2 - H   8            2.79    0.77    0.042
   4. BD (   1) C   1 - H   5        / 69. BD*(   1) C   2 - H   7            2.79    0.77    0.042
   5. BD (   1) C   2 - C   6        / 14. RY*(   1) C   1                    0.91    1.48    0.033
   5. BD (   1) C   2 - C   6        / 64. BD*(   1) C   1 - C   2            0.74    0.91    0.023
   5. BD (   1) C   2 - C   6        / 65. BD*(   1) C   1 - H   3            1.69    0.92    0.035
   6. BD (   1) C   2 - H   7        / 67. BD*(   1) C   1 - H   5            3.00    0.78    0.043
   6. BD (   1) C   2 - H   7        / 72. BD*(   1) C   6 - H  10            3.01    0.79    0.043
   7. BD (   1) C   2 - H   8        / 66. BD*(   1) C   1 - H   4            3.00    0.79    0.043
   7. BD (   1) C   2 - H   8        / 73. BD*(   1) C   6 - H  11            3.01    0.78    0.044
   8. BD (   1) C   6 - H   9        / 29. RY*(   2) C   2                    0.57    1.59    0.027
   8. BD (   1) C   6 - H   9        / 64. BD*(   1) C   1 - C   2            3.15    0.79    0.045
   9. BD (   1) C   6 - H  10        / 69. BD*(   1) C   2 - H   7            2.79    0.77    0.042
  10. BD (   1) C   6 - H  11        / 70. BD*(   1) C   2 - H   8            2.80    0.77    0.042
  11. CR (   1) C   1                / 30. RY*(   3) C   2                    1.06   10.45    0.094
  11. CR (   1) C   1                / 33. RY*(   6) C   2                    0.63   10.84    0.074
  12. CR (   1) C   2                / 17. RY*(   4) C   1                    1.33   10.47    0.105
  12. CR (   1) C   2                / 48. RY*(   4) C   6                    1.33   10.47    0.105
  13. CR (   1) C   6                / 30. RY*(   3) C   2                    1.07   10.45    0.094
  13. CR (   1) C   6                / 33. RY*(   6) C   2                    0.62   10.84    0.073


 Natural Bond Orbitals (Summary):

                                                            Principal Delocalizations
           NBO                        Occupancy    Energy   (geminal,vicinal,remote)
 ====================================================================================
 Molecular unit  1  (C3H8)
     1. BD (   1) C   1 - C   2          1.99154    -0.54713  71(v),45(v),68(g)
     2. BD (   1) C   1 - H   3          1.98918    -0.43077  68(v),29(v)
     3. BD (   1) C   1 - H   4          1.98916    -0.43232  70(v)
     4. BD (   1) C   1 - H   5          1.98916    -0.43185  69(v)
     5. BD (   1) C   2 - C   6          1.99157    -0.54754  65(v),14(v),64(g)
     6. BD (   1) C   2 - H   7          1.97798    -0.42169  72(v),67(v)
     7. BD (   1) C   2 - H   8          1.97797    -0.42136  73(v),66(v)
     8. BD (   1) C   6 - H   9          1.98913    -0.43018  64(v),29(v)
     9. BD (   1) C   6 - H  10          1.98916    -0.43219  69(v)
    10. BD (   1) C   6 - H  11          1.98915    -0.43219  70(v)
    11. CR (   1) C   1                  1.99949    -9.76166  30(v),33(v)
    12. CR (   1) C   2                  1.99941    -9.76249  48(v),17(v)
    13. CR (   1) C   6                  1.99949    -9.76174  30(v),33(v)
    14. RY*(   1) C   1                  0.00219     0.93317   
    15. RY*(   2) C   1                  0.00114     1.11075   
    16. RY*(   3) C   1                  0.00052     0.70817   
    17. RY*(   4) C   1                  0.00030     0.70556   
    18. RY*(   5) C   1                  0.00007     0.60943   
    19. RY*(   6) C   1                  0.00000     0.82840   
    20. RY*(   7) C   1                  0.00000     0.21855   
    21. RY*(   8) C   1                  0.00000     3.98319   
    22. RY*(   9) C   1                  0.00000     0.23022   
    23. RY*(  10) C   1                  0.00001     1.88794   
    24. RY*(  11) C   1                  0.00000     1.59402   
    25. RY*(  12) C   1                  0.00001     1.76934   
    26. RY*(  13) C   1                  0.00000     1.57627   
    27. RY*(  14) C   1                  0.00000     1.98512   
    28. RY*(   1) C   2                  0.00241     1.05239   
    29. RY*(   2) C   2                  0.00138     1.15487   
    30. RY*(   3) C   2                  0.00104     0.69022   
    31. RY*(   4) C   2                  0.00046     0.74256   
    32. RY*(   5) C   2                  0.00030     1.78404   
    33. RY*(   6) C   2                  0.00020     1.07564   
    34. RY*(   7) C   2                  0.00020     1.32410   
    35. RY*(   8) C   2                  0.00004     1.00275   
    36. RY*(   9) C   2                  0.00000     0.29372   
    37. RY*(  10) C   2                  0.00000     1.50047   
    38. RY*(  11) C   2                  0.00000     0.27215   
    39. RY*(  12) C   2                  0.00000     1.77379   
    40. RY*(  13) C   2                  0.00000     4.00832   
    41. RY*(  14) C   2                  0.00000     1.95514   
    42. RY*(   1) H   3                  0.00038     0.65106   
    43. RY*(   1) H   4                  0.00066     0.66142   
    44. RY*(   1) H   5                  0.00065     0.66207   
    45. RY*(   1) C   6                  0.00219     0.93210   
    46. RY*(   2) C   6                  0.00114     1.11147   
    47. RY*(   3) C   6                  0.00052     0.70621   
    48. RY*(   4) C   6                  0.00030     0.70700   
    49. RY*(   5) C   6                  0.00007     0.61053   
    50. RY*(   6) C   6                  0.00000     0.82861   
    51. RY*(   7) C   6                  0.00000     0.21853   
    52. RY*(   8) C   6                  0.00000     3.98276   
    53. RY*(   9) C   6                  0.00000     0.23030   
    54. RY*(  10) C   6                  0.00001     1.88767   
    55. RY*(  11) C   6                  0.00000     1.59381   
    56. RY*(  12) C   6                  0.00001     1.76878   
    57. RY*(  13) C   6                  0.00000     1.57625   
    58. RY*(  14) C   6                  0.00000     1.98539   
    59. RY*(   1) H   7                  0.00112     0.68215   
    60. RY*(   1) H   8                  0.00112     0.68259   
    61. RY*(   1) H   9                  0.00038     0.65173   
    62. RY*(   1) H  10                  0.00066     0.66163   
    63. RY*(   1) H  11                  0.00066     0.66161   
    64. BD*(   1) C   1 - C   2          0.00971     0.36091   
    65. BD*(   1) C   1 - H   3          0.00628     0.36892   
    66. BD*(   1) C   1 - H   4          0.01008     0.36423   
    67. BD*(   1) C   1 - H   5          0.01011     0.36235   
    68. BD*(   1) C   2 - C   6          0.00966     0.36145   
    69. BD*(   1) C   2 - H   7          0.01753     0.34120   
    70. BD*(   1) C   2 - H   8          0.01755     0.34006   
    71. BD*(   1) C   6 - H   9          0.00632     0.36697   
    72. BD*(   1) C   6 - H  10          0.01010     0.36351   
    73. BD*(   1) C   6 - H  11          0.01011     0.36351   
       -------------------------------
              Total Lewis   25.87239  ( 99.5092%)
        Valence non-Lewis    0.10746  (  0.4133%)
        Rydberg non-Lewis    0.02015  (  0.0775%)
       -------------------------------
            Total unit  1   26.00000  (100.0000%)
           Charge unit  1    0.00000
 Calling FoFJK, ICntrl=      2527 FMM=F ISym2X=0 I1Cent= 0 IOpClX= 0 NMat=1 NMatS=1 NMatT=0.
 ***** Axes restored to original set *****
 -------------------------------------------------------------------
 Center     Atomic                   Forces (Hartrees/Bohr)
 Number     Number              X              Y              Z
 -------------------------------------------------------------------
      1        6          -0.015891013    0.004681002    0.000541748
      2        6           0.010236463    0.015473497    0.000361637
      3        1          -0.001152113   -0.007601534    0.000043166
      4        1           0.000270166    0.003199735    0.005714678
      5        1           0.000487477    0.003588223   -0.006297291
      6        6           0.011302631   -0.013144219   -0.000002385
      7        1          -0.001781386   -0.002602028    0.007831495
      8        1          -0.001917209   -0.002803036   -0.008187597
      9        1          -0.007341422   -0.003871488   -0.000000671
     10        1           0.002892937    0.001541321   -0.006057745
     11        1           0.002893471    0.001538525    0.006052967
 -------------------------------------------------------------------
 Cartesian Forces:  Max     0.015891013 RMS     0.006485401

 GradGradGradGradGradGradGradGradGradGradGradGradGradGradGradGradGradGrad
 Berny optimization.
 FormGI is forming the generalized inverse of G from B-inverse, IUseBI=4.
 Internal  Forces:  Max     0.016556908 RMS     0.004874213
 Search for a local minimum.
 Step number   1 out of a maximum of   56
 All quantities printed in internal units (Hartrees-Bohrs-Radians)
 Mixed Optimization -- RFO/linear search
 Second derivative matrix not updated -- first step.
 ITU=  0
     Eigenvalues ---    0.00660   0.00667   0.03866   0.05082   0.05794
     Eigenvalues ---    0.05798   0.05809   0.05818   0.08324   0.12160
     Eigenvalues ---    0.16000   0.16000   0.16000   0.16000   0.16000
     Eigenvalues ---    0.16000   0.21909   0.31312   0.31393   0.31552
     Eigenvalues ---    0.31606   0.31836   0.31853   0.31928   0.31928
     Eigenvalues ---    0.31974   0.31985
 RFO step:  Lambda=-3.92852092D-03 EMin= 6.60122863D-03
 Linear search not attempted -- first point.
 Iteration  1 RMS(Cart)=  0.03593343 RMS(Int)=  0.00022818
 Iteration  2 RMS(Cart)=  0.00026633 RMS(Int)=  0.00009629
 Iteration  3 RMS(Cart)=  0.00000005 RMS(Int)=  0.00009629
 Variable       Old X    -DE/DX   Delta X   Delta X   Delta X     New X
                                 (Linear)    (Quad)   (Total)
    R1        2.84971   0.01629   0.00000   0.05098   0.05098   2.90069
    R2        2.10892  -0.00672   0.00000  -0.02077  -0.02077   2.08815
    R3        2.10871  -0.00622   0.00000  -0.01922  -0.01922   2.08949
    R4        2.11113  -0.00696   0.00000  -0.02157  -0.02157   2.08956
    R5        2.84871   0.01656   0.00000   0.05174   0.05174   2.90046
    R6        2.11968  -0.00817   0.00000  -0.02571  -0.02571   2.09397
    R7        2.12120  -0.00860   0.00000  -0.02714  -0.02714   2.09407
    R8        2.11144  -0.00743   0.00000  -0.02306  -0.02306   2.08838
    R9        2.10976  -0.00656   0.00000  -0.02030  -0.02030   2.08946
   R10        2.10976  -0.00656   0.00000  -0.02028  -0.02028   2.08947
    A1        1.92684   0.00468   0.00000   0.03041   0.03019   1.95703
    A2        1.93070   0.00163   0.00000   0.00905   0.00895   1.93965
    A3        1.93027   0.00169   0.00000   0.00928   0.00918   1.93945
    A4        1.89287  -0.00303   0.00000  -0.01659  -0.01680   1.87607
    A5        1.89337  -0.00309   0.00000  -0.01719  -0.01739   1.87598
    A6        1.88866  -0.00218   0.00000  -0.01687  -0.01687   1.87180
    A7        1.95069   0.00463   0.00000   0.02714   0.02699   1.97767
    A8        1.91073  -0.00111   0.00000  -0.00164  -0.00176   1.90897
    A9        1.91048  -0.00110   0.00000  -0.00150  -0.00163   1.90885
   A10        1.91069  -0.00109   0.00000  -0.00142  -0.00153   1.90916
   A11        1.91044  -0.00109   0.00000  -0.00129  -0.00141   1.90903
   A12        1.86900  -0.00046   0.00000  -0.02348  -0.02352   1.84548
   A13        1.92652   0.00466   0.00000   0.03065   0.03043   1.95695
   A14        1.93094   0.00166   0.00000   0.00903   0.00892   1.93986
   A15        1.93094   0.00166   0.00000   0.00903   0.00893   1.93986
   A16        1.89194  -0.00301   0.00000  -0.01626  -0.01647   1.87548
   A17        1.89194  -0.00302   0.00000  -0.01628  -0.01648   1.87546
   A18        1.89041  -0.00227   0.00000  -0.01807  -0.01806   1.87235
    D1        3.14159  -0.00001   0.00000  -0.00015  -0.00015   3.14145
    D2       -1.02162   0.00090   0.00000   0.01482   0.01483  -1.00679
    D3        1.02211  -0.00093   0.00000  -0.01536  -0.01537   1.00674
    D4       -1.04631   0.00029   0.00000   0.00475   0.00480  -1.04151
    D5        1.07367   0.00121   0.00000   0.01972   0.01978   1.09345
    D6        3.11740  -0.00063   0.00000  -0.01047  -0.01042   3.10698
    D7        1.04596  -0.00027   0.00000  -0.00444  -0.00449   1.04147
    D8       -3.11726   0.00064   0.00000   0.01053   0.01049  -3.10677
    D9       -1.07352  -0.00120   0.00000  -0.01965  -0.01972  -1.09324
   D10        3.14159  -0.00000   0.00000  -0.00006  -0.00006   3.14153
   D11       -1.04752   0.00033   0.00000   0.00537   0.00542  -1.04209
   D12        1.04752  -0.00034   0.00000  -0.00547  -0.00553   1.04198
   D13        1.02160  -0.00091   0.00000  -0.01490  -0.01491   1.00668
   D14        3.11567  -0.00057   0.00000  -0.00947  -0.00943   3.10624
   D15       -1.07248  -0.00124   0.00000  -0.02031  -0.02038  -1.09286
   D16       -1.02209   0.00091   0.00000   0.01502   0.01504  -1.00705
   D17        1.07199   0.00124   0.00000   0.02045   0.02052   1.09251
   D18       -3.11617   0.00057   0.00000   0.00961   0.00957  -3.10660
         Item               Value     Threshold  Converged?
 Maximum Force            0.016557     0.000450     NO 
 RMS     Force            0.004874     0.000300     NO 
 Maximum Displacement     0.080231     0.001800     NO 
 RMS     Displacement     0.035887     0.001200     NO 
 Predicted change in Energy=-1.999856D-03
 GradGradGradGradGradGradGradGradGradGradGradGradGradGradGradGradGradGrad

                          Input orientation:                          
 ---------------------------------------------------------------------
 Center     Atomic      Atomic             Coordinates (Angstroms)
 Number     Number       Type             X           Y           Z
 ---------------------------------------------------------------------
      1          6           0       -5.492528    1.927426   -0.071816
      2          6           0       -3.957686    1.906990   -0.071813
      3          1           0       -5.895124    2.956474   -0.071580
      4          1           0       -5.898082    1.412109   -0.962078
      5          1           0       -5.897895    1.411862    0.818435
      6          6           0       -3.369095    0.489477   -0.071932
      7          1           0       -3.582650    2.461058   -0.955105
      8          1           0       -3.582767    2.460738    0.811790
      9          1           0       -2.264003    0.497664   -0.071991
     10          1           0       -3.696544   -0.078451    0.818458
     11          1           0       -3.696627   -0.078347   -0.962368
 ---------------------------------------------------------------------
                    Distance matrix (angstroms):
[...]
    A1        1.94970   0.00002   0.00000   0.00010   0.00010   1.94980
    A2        1.93846  -0.00003   0.00000  -0.00026  -0.00026   1.93820
    A3        1.93845  -0.00002   0.00000  -0.00025  -0.00025   1.93820
    A4        1.87971   0.00001   0.00000   0.00011   0.00011   1.87982
    A5        1.87970   0.00001   0.00000   0.00012   0.00012   1.87982
    A6        1.87463   0.00002   0.00000   0.00020   0.00020   1.87484
    A7        1.96795  -0.00003   0.00000  -0.00040  -0.00040   1.96755
    A8        1.91032   0.00001   0.00000   0.00002   0.00002   1.91034
    A9        1.91031   0.00001   0.00000   0.00003   0.00003   1.91034
   A10        1.91034   0.00001   0.00000   0.00000   0.00000   1.91034
   A11        1.91034   0.00001   0.00000   0.00000   0.00000   1.91034
   A12        1.85091   0.00001   0.00000   0.00040   0.00040   1.85131
   A13        1.94972   0.00001   0.00000   0.00008   0.00008   1.94980
   A14        1.93848  -0.00003   0.00000  -0.00028  -0.00028   1.93820
   A15        1.93848  -0.00003   0.00000  -0.00028  -0.00028   1.93820
   A16        1.87967   0.00001   0.00000   0.00015   0.00015   1.87982
   A17        1.87967   0.00001   0.00000   0.00016   0.00016   1.87982
   A18        1.87464   0.00002   0.00000   0.00019   0.00019   1.87484
    D1        3.14159   0.00000   0.00000   0.00000   0.00000   3.14159
    D2       -1.01081  -0.00001   0.00000  -0.00025  -0.00025  -1.01106
    D3        1.01081   0.00001   0.00000   0.00025   0.00025   1.01106
    D4       -1.04255   0.00000   0.00000   0.00004   0.00004  -1.04251
    D5        1.08824  -0.00001   0.00000  -0.00022  -0.00022   1.08802
    D6        3.10986   0.00001   0.00000   0.00028   0.00028   3.11014
    D7        1.04255  -0.00000   0.00000  -0.00004  -0.00004   1.04251
    D8       -3.10985  -0.00001   0.00000  -0.00030  -0.00030  -3.11014
    D9       -1.08823   0.00001   0.00000   0.00020   0.00020  -1.08802
   D10        3.14154  -0.00000   0.00000   0.00006   0.00006   3.14159
   D11       -1.04263   0.00000   0.00000   0.00012   0.00012  -1.04251
   D12        1.04252  -0.00000   0.00000  -0.00001  -0.00001   1.04251
   D13        1.01076   0.00001   0.00000   0.00030   0.00030   1.01106
   D14        3.10978   0.00001   0.00000   0.00036   0.00036   3.11014
   D15       -1.08826   0.00000   0.00000   0.00024   0.00024  -1.08802
   D16       -1.01088  -0.00001   0.00000  -0.00018  -0.00018  -1.01106
   D17        1.08814  -0.00000   0.00000  -0.00012  -0.00012   1.08802
   D18       -3.10990  -0.00001   0.00000  -0.00024  -0.00024  -3.11014
         Item               Value     Threshold  Converged?
 Maximum Force            0.000114     0.000450     YES
 RMS     Force            0.000026     0.000300     YES
 Maximum Displacement     0.000707     0.001800     YES
 RMS     Displacement     0.000290     0.001200     YES
 Predicted change in Energy=-9.440957D-08
 Optimization completed.
    -- Stationary point found.
                           ----------------------------
                           !   Optimized Parameters   !
                           ! (Angstroms and Degrees)  !
 --------------------------                            --------------------------
 ! Name  Definition              Value          Derivative Info.                !
 --------------------------------------------------------------------------------
 ! R1    R(1,2)                  1.5336         -DE/DX =    0.0001              !
 ! R2    R(1,3)                  1.1044         -DE/DX =    0.0                 !
 ! R3    R(1,4)                  1.1056         -DE/DX =    0.0                 !
 ! R4    R(1,5)                  1.1056         -DE/DX =    0.0                 !
 ! R5    R(2,6)                  1.5335         -DE/DX =    0.0001              !
 ! R6    R(2,7)                  1.107          -DE/DX =    0.0                 !
 ! R7    R(2,8)                  1.107          -DE/DX =    0.0                 !
 ! R8    R(6,9)                  1.1044         -DE/DX =    0.0                 !
 ! R9    R(6,10)                 1.1056         -DE/DX =    0.0                 !
 ! R10   R(6,11)                 1.1056         -DE/DX =    0.0                 !
 ! A1    A(2,1,3)              111.7098         -DE/DX =    0.0                 !
 ! A2    A(2,1,4)              111.0655         -DE/DX =    0.0                 !
 ! A3    A(2,1,5)              111.0652         -DE/DX =    0.0                 !
 ! A4    A(3,1,4)              107.6994         -DE/DX =    0.0                 !
 ! A5    A(3,1,5)              107.699          -DE/DX =    0.0                 !
 ! A6    A(4,1,5)              107.4085         -DE/DX =    0.0                 !
 ! A7    A(1,2,6)              112.7553         -DE/DX =    0.0                 !
 ! A8    A(1,2,7)              109.4533         -DE/DX =    0.0                 !
 ! A9    A(1,2,8)              109.4528         -DE/DX =    0.0                 !
 ! A10   A(6,2,7)              109.4542         -DE/DX =    0.0                 !
 ! A11   A(6,2,8)              109.4542         -DE/DX =    0.0                 !
 ! A12   A(7,2,8)              106.0495         -DE/DX =    0.0                 !
 ! A13   A(2,6,9)              111.7107         -DE/DX =    0.0                 !
 ! A14   A(2,6,10)             111.0666         -DE/DX =    0.0                 !
 ! A15   A(2,6,11)             111.0667         -DE/DX =    0.0                 !
 ! A16   A(9,6,10)             107.6971         -DE/DX =    0.0                 !
 ! A17   A(9,6,11)             107.6969         -DE/DX =    0.0                 !
 ! A18   A(10,6,11)            107.4092         -DE/DX =    0.0                 !
 ! D1    D(3,1,2,6)            179.9999         -DE/DX =    0.0                 !
 ! D2    D(3,1,2,7)            -57.915          -DE/DX =    0.0                 !
 ! D3    D(3,1,2,8)             57.9152         -DE/DX =    0.0                 !
 ! D4    D(4,1,2,6)            -59.7335         -DE/DX =    0.0                 !
 ! D5    D(4,1,2,7)             62.3517         -DE/DX =    0.0                 !
 ! D6    D(4,1,2,8)            178.1818         -DE/DX =    0.0                 !
 ! D7    D(5,1,2,6)             59.7338         -DE/DX =    0.0                 !
 ! D8    D(5,1,2,7)           -178.181          -DE/DX =    0.0                 !
 ! D9    D(5,1,2,8)            -62.3508         -DE/DX =    0.0                 !
 ! D10   D(1,2,6,9)            179.9968         -DE/DX =    0.0                 !
 ! D11   D(1,2,6,10)           -59.738          -DE/DX =    0.0                 !
 ! D12   D(1,2,6,11)            59.7318         -DE/DX =    0.0                 !
 ! D13   D(7,2,6,9)             57.9122         -DE/DX =    0.0                 !
 ! D14   D(7,2,6,10)           178.1773         -DE/DX =    0.0                 !
 ! D15   D(7,2,6,11)           -62.3529         -DE/DX =    0.0                 !
 ! D16   D(8,2,6,9)            -57.9193         -DE/DX =    0.0                 !
 ! D17   D(8,2,6,10)            62.3458         -DE/DX =    0.0                 !
 ! D18   D(8,2,6,11)          -178.1843         -DE/DX =    0.0                 !
 --------------------------------------------------------------------------------
 GradGradGradGradGradGradGradGradGradGradGradGradGradGradGradGradGradGrad


 ----------------------------------------------------------------------

 Electric dipole moment (input orientation):
 (Debye = 10**-18 statcoulomb cm , SI units = C m)
                  (au)            (Debye)         (10**-30 SI)
   Tot        0.355502D-01      0.903596D-01      0.301407D+00
   x          0.199375D-01      0.506760D-01      0.169037D+00
   y          0.294332D-01      0.748118D-01      0.249545D+00
   z          0.000000D+00      0.000000D+00      0.000000D+00

 Dipole polarizability, Alpha (input orientation).
 (esu units = cm**3 , SI units = C**2 m**2 J**-1)
 Alpha(0;0):
               (au)            (10**-24 esu)      (10**-40 SI)
   iso        0.383654D+02      0.568517D+01      0.632560D+01
   aniso      0.558945D+01      0.828271D+00      0.921576D+00
   xx         0.405681D+02      0.601157D+01      0.668877D+01
   yx        -0.188070D+01     -0.278690D+00     -0.310085D+00
   yy         0.390636D+02      0.578863D+01      0.644072D+01
   zx        -0.258377D-03     -0.382875D-04     -0.426006D-04
   zy         0.467357D-03      0.692552D-04      0.770568D-04
   zz         0.354646D+02      0.525531D+01      0.584732D+01

 ----------------------------------------------------------------------

 Dipole orientation:
     6         -8.72182878          6.07122491         -2.80867735
     6         -6.72398261          4.71823599         -1.20349911
     1        -10.14318374          7.03394963         -1.62191397
     1         -7.84463954          7.51076012         -4.04285659
     1         -9.73315276          4.72236020         -4.04265714
     6         -4.72572552          3.36475503         -2.80766830
     1         -5.78699224          6.10219181          0.05466339
     1         -7.66136590          3.33469770          0.05482692
     1         -3.30461394          2.40247750         -1.62022578
     1         -5.60252299          1.92471012         -4.04153105
     1         -3.71407800          4.71317353         -4.04187161

 Electric dipole moment (dipole orientation):
 (Debye = 10**-18 statcoulomb cm , SI units = C m)
                  (au)            (Debye)         (10**-30 SI)
   Tot        0.355502D-01      0.903596D-01      0.301407D+00
   x          0.000000D+00      0.000000D+00      0.000000D+00
   y          0.000000D+00      0.000000D+00      0.000000D+00
   z          0.355502D-01      0.903596D-01      0.301407D+00

 Dipole polarizability, Alpha (dipole orientation).
 (esu units = cm**3 , SI units = C**2 m**2 J**-1)
 Alpha(0;0):
               (au)            (10**-24 esu)      (10**-40 SI)
   iso        0.383654D+02      0.568517D+01      0.632560D+01
   aniso      0.558945D+01      0.828271D+00      0.921576D+00
   xx         0.398362D+02      0.590311D+01      0.656810D+01
   yx        -0.296074D+01     -0.438737D+00     -0.488160D+00
   yy         0.374698D+02      0.555245D+01      0.617794D+01
   zx         0.847584D-03      0.125599D-03      0.139748D-03
   zy        -0.413465D-03     -0.612692D-04     -0.681712D-04
   zz         0.377903D+02      0.559994D+01      0.623077D+01

 ----------------------------------------------------------------------
 1\1\GINC-DIDO\Freq\RPBEPBE\6-31+G(d)\C3H8\GRTE2001\04-Nov-2021\0\\#N G
 eom=AllCheck Guess=TCheck SCRF=Check GenChk RPBEPBE/6-31+G(d) Freq\\pr
 opane\\0,1\C,-5.4890425572,1.9230069248,-0.0717535143\C,-3.9555258174,
 1.9101888523,-0.0717537785\H,-5.8889697745,2.9524345999,-0.0716200252\
 H,-5.8907579132,1.4064638671,-0.9628822395\H,-5.8907529964,1.406240880
 3,0.8192477189\C,-3.37419774,0.4910970962,-0.0719343094\H,-3.582224971
 4,2.4616541799,-0.9560667283\H,-3.582237354,2.4614225559,0.8127076126\
 H,-2.2698603756,0.5019992779,-0.0719888762\H,-3.7046716788,-0.07384836
 26,0.8190908374\H,-3.7047588216,-0.0736598717,-0.9630466976\\Version=E
 S64L-G16RevA.03\State=1-A\HF=-118.965912\RMSD=8.184e-10\RMSF=4.695e-05
 \ZeroPoint=0.1012805\Thermal=0.1058555\Dipole=0.0199375,0.0294332,0.00
 00057\DipoleDeriv=0.0037964,0.0240949,0.0000049,0.0450472,0.0588436,-0
 .0000055,0.0000058,-0.0000037,0.1087094,0.1518599,-0.0244602,-0.000003
 8,-0.0244628,0.1323001,-0.0000016,-0.0000047,-0.000005,0.1358162,-0.02
 12147,0.0750442,0.0000094,0.1192074,-0.1426275,-0.0000292,0.0000144,-0
 .0000292,0.0827338,-0.0025684,-0.0194853,-0.0336642,-0.068013,0.020326
 6,-0.0989129,-0.0904652,-0.0906094,-0.0863296,-0.0025668,-0.0194955,0.
 0336581,-0.0680364,0.0202794,0.0989391,0.0904479,0.0906367,-0.0862839,
 0.0274189,0.0544802,0.0000051,0.03353,0.0352402,-0.0000098,0.000006,-0
 .0000098,0.1087084,-0.029253,-0.0223115,0.0621744,-0.0223124,-0.047122
 7,0.0918394,0.0804854,0.1188841,-0.08671,-0.0292505,-0.022294,-0.06217
 82,-0.0222933,-0.0470688,-0.0918271,-0.080491,-0.1188736,-0.0867653,-0
 .1928793,0.0505649,0.0000167,0.0064078,0.0290162,-0.0000042,0.0000135,
 -0.0000075,0.0827361,0.0473349,-0.0480711,0.0793396,0.0004607,-0.02961
 47,0.0679983,0.0505491,0.117651,-0.0862928,0.0473226,-0.0480667,-0.079
 362,0.0004648,-0.0295723,-0.0679865,-0.0505611,-0.1176335,-0.0863223\P
 olar=40.5680761,-1.8806961,39.0635876,-0.0002584,0.0004674,35.4645917\
 Quadrupole=-0.2212255,-0.1198399,0.3410655,0.1265695,0.0000056,-0.0000
 509\PG=C01 [X(C3H8)]\NImag=0\\0.45371571,-0.00364208,0.54716813,0.0000
 0010,0.00000190,0.53862437,-0.19029820,-0.00384339,-0.00000063,0.45941
 999,-0.00193019,-0.07337791,0.00000049,0.03551686,0.48787005,-0.000000
 39,0.00000026,-0.07440539,0.00000362,-0.00000937,0.56300405,-0.0746426
 9,0.08246725,0.00001055,-0.00985644,0.03119785,0.00000394,0.08305465,0
 .08300172,-0.26795935,-0.00002889,-0.00204930,0.00142483,0.00000040,-0
 .09142449,0.29012417,0.00001063,-0.00002895,-0.04490898,-0.00000025,0.
 00000036,-0.00169180,-0.00001176,0.00003167,0.04451892,-0.07391521,-0.
 04056313,-0.07058263,-0.01299504,-0.01533581,-0.02757873,0.00333916,0.
 00457741,0.00978983,0.08382110,-0.04059118,-0.10017152,-0.09501177,-0.
 00018935,-0.00106489,0.00005746,-0.01075825,-0.01300471,-0.02439656,0.
 04543639,0.10539465,-0.07068720,-0.09488674,-0.21035886,0.00040335,0.0
 0029867,0.00018481,0.00091940,0.00113641,0.00034537,0.07845828,0.10513
 830,0.22693648,-0.07391441,-0.04058048,0.07057194,-0.01299521,-0.01534
 309,0.02757501,0.00333914,0.00457994,-0.00978868,0.00327570,0.00610299
 ,-0.00888822,0.08382052,-0.04060851,-0.10021915,0.09503965,-0.00018927
 ,-0.00106471,-0.00005783,-0.01075793,-0.01301080,0.02439339,0.00610071
 ,0.00702213,-0.01282576,0.04545576,0.10544756,0.07067657,0.09491479,-0
 .21031235,-0.00040338,-0.00029895,0.00018466,-0.00092210,-0.00113973,0
 .00035126,0.00888961,0.01283254,-0.02011939,-0.07844630,-0.10516922,0.
 22688485,-0.01718179,0.03272254,0.00000428,-0.08751150,0.03727670,0.00
 000450,-0.00677596,0.00095114,0.00000009,0.00159612,0.00053169,0.00037
 313,0.00159620,0.00053165,-0.00037298,0.53677009,0.00565204,-0.0018345
 3,-0.00000047,0.03918946,-0.17619502,-0.00001288,-0.00211461,0.0011955
 5,0.00000002,-0.00145034,0.00088208,0.00015946,-0.00145025,0.00088231,
 -0.00015935,0.02956053,0.46412667,0.00000089,-0.00000051,-0.00031545,0
 .00000521,-0.00001251,-0.07440513,-0.00000018,0.,0.00039814,-0.0006687
 9,0.00114563,0.00037131,0.00066832,-0.00114536,0.00037103,0.00000302,-
 0.00000933,0.53862617,-0.01342786,-0.01562594,0.02696164,-0.07043646,-
 0.04067600,0.06430429,0.00113821,0.00043662,0.00005754,0.00133732,-0.0
 0027398,-0.00036619,-0.00677430,0.00005900,-0.00027070,0.00350218,0.00
 700418,-0.01056385,0.08132374,0.00023183,0.00005524,-0.00059435,-0.040
 67565,-0.10299173,0.09499495,-0.00016155,0.00043001,-0.00037685,-0.000
 15613,-0.00023389,0.00020012,0.00032011,0.00087159,-0.00010195,-0.0088
 5159,-0.01687802,0.02481358,0.04172992,0.11472377,-0.00055143,-0.00072
 672,0.00026804,0.06468340,0.09555552,-0.20574814,0.00049277,-0.0003574
 7,0.00002555,0.00030471,-0.00003572,0.00085438,-0.00026427,-0.00049604
 ,0.00169788,-0.00047110,-0.00078393,0.00027112,-0.07162612,-0.10581036
 ,0.22120114,-0.01342809,-0.01561908,-0.02696593,-0.07043459,-0.0406579
 1,-0.06431337,0.00113818,0.00043664,-0.00005744,-0.00677430,0.00005892
 ,0.00027066,0.00133734,-0.00027408,0.00036610,0.00350248,0.00700130,0.
 01056543,0.00308666,0.00552213,0.00845524,0.08132196,0.00023166,0.0000
 5491,0.00059422,-0.04065769,-0.10294175,-0.09496924,-0.00016140,0.0004
 2982,0.00037695,0.00032002,0.00087141,0.00010173,-0.00015606,-0.000233
 85,-0.00020040,-0.00885212,-0.01687225,-0.02481780,0.00552419,0.007504
 54,0.01249044,0.04171046,0.11466880,0.00055137,0.00072643,0.00026806,-
 0.06469296,-0.09553022,-0.20580082,-0.00049279,0.00035759,0.00002573,0
 .00026430,0.00049586,0.00169804,-0.00030471,0.00003544,0.00085439,0.00
 046875,0.00077980,0.00026509,-0.00845345,-0.01248281,-0.02114803,0.071
 63574,0.10578351,0.22125934,0.00049782,0.00386004,0.00000051,-0.010180
 81,-0.00217880,0.00000005,-0.00092480,-0.00000174,0.00000002,0.0003640
 1,-0.00014652,0.00005349,0.00036399,-0.00014651,-0.00005351,-0.2983369
 3,-0.00646114,0.00001211,0.00043283,0.00015457,-0.00051497,0.00043266,
 0.00015449,0.00051494,0.32459965,0.00079420,-0.00607785,-0.00000090,0.
 03106862,0.00174904,-0.00000079,0.00210042,-0.00008542,-0.00000006,-0.
 00008621,-0.00004078,0.00026212,-0.00008610,-0.00004072,-0.00026218,-0
 .00699564,-0.04425029,0.00000028,-0.00044354,0.00113546,0.00032488,-0.
 00044374,0.00113532,-0.00032463,0.00517714,0.04856593,-0.00000003,-0.0
 0000076,0.00039820,0.00000363,0.00000063,-0.00169200,0.00000023,-0.000
 00004,0.00054983,0.00044487,0.00001931,0.00019303,-0.00044490,-0.00001
 937,0.00019294,0.00001223,0.00000026,-0.04490971,-0.00037138,-0.000086
 47,0.00002580,0.00037121,0.00008676,0.00002554,-0.00001346,0.00000003,
 0.04452084,0.00129731,0.00041222,-0.00131173,0.00264371,0.00606614,-0.
 01029336,0.00009526,-0.00025398,0.00014725,-0.00004296,-0.00001219,-0.
 00002861,-0.00000601,-0.00015861,0.00050805,-0.06857451,-0.03846706,0.
 06200842,-0.00031334,0.00264272,-0.00036194,0.00013116,-0.00075642,0.0
 0014612,-0.00862288,-0.01554539,0.02628513,0.07109465,-0.00156965,0.00
 118092,0.00019538,-0.00908424,-0.01670691,0.02558253,-0.00019358,0.000
 22799,-0.00042022,0.00014315,0.00000941,-0.00006161,0.00101400,0.00033
 619,-0.00047716,-0.03843897,-0.10554943,0.10083131,0.00290402,-0.00558
 923,-0.00043039,-0.00063845,0.00097243,-0.00026968,-0.00020567,-0.0010
 4521,-0.00003040,0.04036007,0.11816372,-0.00000970,-0.00040546,0.00037
 109,-0.00012879,-0.00048776,0.00018820,-0.00022355,-0.00014699,0.00019
 293,0.00004662,0.00004946,-0.00016311,-0.00063166,0.00029458,0.0000578
 7,0.06185382,0.10088248,-0.21032115,0.00000634,-0.00029021,0.00169798,
 -0.00032198,0.00026564,0.00085454,-0.00071390,-0.00127643,0.00034634,-
 0.06848773,-0.11190523,0.22689406,0.00129741,0.00041207,0.00131191,0.0
 0264455,0.00606426,0.01029444,0.00009529,-0.00025394,-0.00014722,-0.00
 000590,-0.00015851,-0.00050810,-0.00004297,-0.00001222,0.00002864,-0.0
 6858640,-0.03846409,-0.06203059,0.00013102,-0.00075635,-0.00014630,-0.
 00031344,0.00264287,0.00036270,-0.00862553,-0.01553974,-0.02628753,0.0
 0229760,0.00570932,0.00861054,0.07110837,-0.00156982,0.00118111,-0.000
 19526,-0.00908604,-0.01670100,-0.02558550,-0.00019370,0.00022790,0.000
 42025,0.00101395,0.00033610,0.00047728,0.00014320,0.00000943,0.0000616
 3,-0.03843592,-0.10550707,-0.10080528,-0.00063846,0.00097224,0.0002697
 9,0.00290381,-0.00558939,0.00042873,-0.00020584,-0.00104548,0.00003006
 ,0.00571250,0.00800010,0.01301993,0.04035634,0.11811605,0.00000920,0.0
 0040576,0.00037127,0.00012681,0.00048315,0.00018157,0.00022349,0.00014
 707,0.00019305,0.00063192,-0.00029452,0.00005794,-0.00004655,-0.000049
 46,-0.00016316,-0.06187575,-0.10085606,-0.21035141,0.00032186,-0.00026
 564,0.00085427,-0.00000565,0.00028819,0.00169813,0.00071473,0.00127767
 ,0.00034919,-0.00861160,-0.01301452,-0.02011875,0.06851153,0.11187837,
 0.22692789\\0.00014371,-0.00000384,-0.00000023,-0.00007855,-0.00013266
 ,0.00000030,0.00000093,0.00000813,0.00000025,-0.00001969,-0.00000140,0
 .00000546,-0.00001937,-0.00000095,-0.00000553,-0.00007034,0.00014335,-
 0.00000012,0.00000788,0.00001223,0.00001547,0.00000675,0.00001181,-0.0
 0001555,0.00001053,0.00000120,-0.00000036,0.00000911,-0.00001878,-0.00
 000472,0.00000903,-0.00001911,0.00000502\\\@


 TRUTH, IN SCIENCE, CAN BE DEFINED AS THE WORKING HYPOTHESIS 
 BEST FITTED TO OPEN THE WAY TO THE NEXT BETTER ONE.

                              -- KONRAD LORENZ
 Job cpu time:       0 days  0 hours  2 minutes 16.8 seconds.
 Elapsed time:       0 days  0 hours  0 minutes 12.0 seconds.
 File lengths (MBytes):  RWF=     87 Int=      0 D2E=      0 Chk=      2 Scr=      2
 Normal termination of Gaussian 16 at Thu Nov  4 16:12:17 2021.
