$hessian                                                                        
        0.4596018914  -0.0015648838  -0.0000002804  -0.2016913273  -0.0038884351
       -0.0000009370  -0.0694102136   0.0763519999  -0.0000169431  -0.0688581533
       -0.0372651076  -0.0642570570  -0.0688632236  -0.0372374394   0.0642753702
       -0.0181649710   0.0066750105  -0.0000000787  -0.0168451925  -0.0018957655
        0.0032438958  -0.0168442015  -0.0018962560  -0.0032434468  -0.0006749633
        0.0025863877   0.0000000837   0.0008750596  -0.0009324811   0.0000522949
        0.0008752951  -0.0009330297  -0.0000529017
       -0.0015648838   0.5258929362   0.0000073754  -0.0040411147  -0.0650035960
        0.0000002853   0.0763954323  -0.2561009856   0.0000450097  -0.0375775171
       -0.0983833261  -0.0913711642  -0.0375511455  -0.0983061346   0.0913208303
        0.0285894438  -0.0040624201  -0.0000011885  -0.0147749532  -0.0002727648
        0.0012568324  -0.0147683559  -0.0002710473  -0.0012574729   0.0037399195
       -0.0052161874  -0.0000012457   0.0007762555   0.0008622210  -0.0005042240
        0.0007769190   0.0008613047   0.0005049622
       -0.0000002804   0.0000073754   0.5231480644  -0.0000010516   0.0000004825
       -0.0686043688  -0.0000163241   0.0000443342  -0.0454147947  -0.0644097913
       -0.0913487400  -0.2038880474   0.0644262551   0.0912965687  -0.2039486311
        0.0000036908  -0.0000005132   0.0006500236   0.0260182032   0.0019575597
       -0.0015685086  -0.0260218068  -0.0019562412  -0.0015697378   0.0000002710
       -0.0000009099   0.0005845983  -0.0008431840   0.0001095922   0.0003058154
        0.0008440181  -0.0001095084   0.0003055866
       -0.2016913273  -0.0040411147  -0.0000010516   0.4713172237   0.0207155036
        0.0000031428  -0.0152022666   0.0028026587   0.0000002467  -0.0162280107
       -0.0026250599  -0.0040487675  -0.0162283056  -0.0026251607   0.0040467003
       -0.0811118645   0.0443288999   0.0000105632  -0.0660866521  -0.0367696145
        0.0595170460  -0.0660857021  -0.0367423303  -0.0595307538  -0.0150460746
        0.0295003459   0.0000060461   0.0031821353  -0.0072730411  -0.0001878411
        0.0031808444  -0.0072710871   0.0001846688
       -0.0038884351  -0.0650035960   0.0000004825   0.0207155036   0.4878903834
       -0.0000119726   0.0294313418  -0.0021214770   0.0000012813  -0.0150364355
       -0.0007768475  -0.0014176915  -0.0150299071  -0.0007762341   0.0014172627
        0.0441822797  -0.1855708224  -0.0000246823  -0.0367678422  -0.0955278502
        0.0879409884  -0.0367423911  -0.0954563343  -0.0878974032   0.0028695938
       -0.0022872088  -0.0000006232   0.0051350641  -0.0201909793   0.0042825874
        0.0051312279  -0.0201790339  -0.0042902296
       -0.0000009370   0.0000002853  -0.0686043688   0.0000031428  -0.0000119726
        0.5405528023  -0.0000042112   0.0000000972   0.0002790641  -0.0264224803
       -0.0017277972  -0.0016282251   0.0264258747   0.0017259502  -0.0016274020
        0.0000090379  -0.0000231389  -0.0686085355   0.0592767907   0.0875759146
       -0.1986538522  -0.0592895768  -0.0875308993  -0.1987208508   0.0000002014
        0.0000001592   0.0002769172  -0.0082070242   0.0251777496  -0.0016264391
        0.0082091820  -0.0251863479  -0.0016391100
       -0.0694102136   0.0763954323  -0.0000163241  -0.0152022666   0.0294313418
       -0.0000042112   0.0833135308  -0.0897773977   0.0000171532   0.0038401246
       -0.0090137833  -0.0002480655   0.0038404048  -0.0090144320   0.0002521173
       -0.0067751631   0.0001472063  -0.0000007229   0.0006911392   0.0003789440
        0.0000130339   0.0006900381   0.0003777154  -0.0000132766  -0.0009218340
        0.0017160063   0.0000004105  -0.0000328396  -0.0003204842   0.0001019342
       -0.0000329208  -0.0003205488  -0.0001020488
        0.0763519999  -0.2561009856   0.0000443342   0.0028026587  -0.0021214770
        0.0000000972  -0.0897773977   0.2950721850  -0.0000519716   0.0048756870
       -0.0195830442  -0.0026778999   0.0048723928  -0.0195706662   0.0026854106
        0.0013019080   0.0008812969   0.0000002803  -0.0002175116   0.0004488131
       -0.0003216090  -0.0002168629   0.0004474681   0.0003211663   0.0002650169
       -0.0001326977  -0.0000000094  -0.0001289289   0.0003297565  -0.0002685209
       -0.0001289622   0.0003293511   0.0002687222
       -0.0000169431   0.0000450097  -0.0454147947   0.0000002467   0.0000012813
        0.0002790641   0.0000171532  -0.0000519716   0.0481341482   0.0079250351
       -0.0278751005  -0.0019847616  -0.0079270886   0.0278822932  -0.0019978412
        0.0000006518  -0.0000005601   0.0005875129   0.0003062601  -0.0004021659
        0.0000366799  -0.0003054832   0.0004014604   0.0000357718   0.0000001744
       -0.0000000965   0.0002314170   0.0000584735  -0.0001090405   0.0000462987
       -0.0000584798   0.0001088905   0.0000465049
       -0.0688581533  -0.0375775171  -0.0644097913  -0.0162280107  -0.0150364355
       -0.0264224803   0.0038401246   0.0048756870   0.0079250351   0.0827839895
        0.0443148277   0.0760043795   0.0037408827   0.0042903011   0.0078469962
        0.0009207630  -0.0009148312  -0.0004167539   0.0009620948  -0.0000899889
       -0.0005087378  -0.0073696128  -0.0003855621  -0.0006343575   0.0004328356
       -0.0001347681   0.0001261359  -0.0000547523   0.0000211187   0.0000351898
       -0.0001701611   0.0006371685   0.0004543843
       -0.0372651076  -0.0983833261  -0.0913487400  -0.0026250599  -0.0007768475
       -0.0017277972  -0.0090137833  -0.0195830442  -0.0278751005   0.0443148277
        0.1105843529   0.1074824849   0.0042865929   0.0068935716   0.0126712020
        0.0007941382   0.0008226345   0.0007407662  -0.0001318697  -0.0001729524
       -0.0001363016  -0.0005406441   0.0006705365   0.0002009857   0.0000578745
       -0.0001410469  -0.0000144311  -0.0000469146  -0.0000668535   0.0000473281
        0.0001699460   0.0001529751  -0.0000403965
       -0.0642570570  -0.0913711642  -0.2038880474  -0.0040487675  -0.0014176915
       -0.0016282251  -0.0002480655  -0.0026778999  -0.0019847616   0.0760043795
        0.1074824849   0.2336758734  -0.0078474900  -0.0126853133  -0.0286683393
        0.0004885020   0.0001403468   0.0003102843   0.0004722235   0.0001977263
        0.0007811538  -0.0006161738  -0.0000272403   0.0012771227   0.0002865329
        0.0000022533   0.0000439329  -0.0000319850  -0.0000503192  -0.0003289789
       -0.0002020992   0.0004068171   0.0004099852
       -0.0688632236  -0.0375511455   0.0644262551  -0.0162283056  -0.0150299071
        0.0264258747   0.0038404048   0.0048723928  -0.0079270886   0.0037408827
        0.0042865929  -0.0078474900   0.0827890088   0.0442876088  -0.0760230958
        0.0009194076  -0.0009137580   0.0004157653  -0.0073695810  -0.0003848188
        0.0006350867   0.0009631577  -0.0000903212   0.0005098666   0.0004324629
       -0.0001343195  -0.0001260569  -0.0001694867   0.0006367785  -0.0004536263
       -0.0000547277   0.0000208970  -0.0000354908
       -0.0372374394  -0.0983061346   0.0912965687  -0.0026251607  -0.0007762341
        0.0017259502  -0.0090144320  -0.0195706662   0.0278822932   0.0042903011
        0.0068935716  -0.0126853133   0.0442876088   0.1104940027  -0.1074236801
        0.0007929804   0.0008222886  -0.0007398739  -0.0005420216   0.0006710042
       -0.0001999736  -0.0001323805  -0.0001725844   0.0001367214   0.0000576245
       -0.0001408035   0.0000145479   0.0001698465   0.0001523351   0.0000401654
       -0.0000469272  -0.0000667794  -0.0000474057
        0.0642753702   0.0913208303  -0.2039486311   0.0040467003   0.0014172627
       -0.0016274020   0.0002521173   0.0026854106  -0.0019978412   0.0078469962
        0.0126712020  -0.0286683393  -0.0760230958  -0.1074236801   0.2337469426
       -0.0004875020  -0.0001402189   0.0003093625   0.0006150183   0.0000260372
        0.0012773606  -0.0004731738  -0.0001982646   0.0007830584  -0.0002862881
       -0.0000022391   0.0000442500   0.0002021628  -0.0004071357   0.0004097008
        0.0000316946   0.0000507956  -0.0003284613
       -0.0181649710   0.0285894438   0.0000036908  -0.0811118645   0.0441822797
        0.0000090379  -0.0067751631   0.0013019080   0.0000006518   0.0009207630
        0.0007941382   0.0004885020   0.0009194076   0.0007929804  -0.0004875020
        0.5179671622   0.0216587891   0.0000062788   0.0031868598  -0.0067561754
       -0.0000360651   0.0031866858  -0.0067559844   0.0000333416  -0.2831782527
       -0.0090694133  -0.0000090692  -0.0684793133  -0.0373855468   0.0608916062
       -0.0684713138  -0.0373524195  -0.0609004730
        0.0066750105  -0.0040624201  -0.0000005132   0.0443288999  -0.1855708224
       -0.0000231389   0.0001472063   0.0008812969  -0.0000005601  -0.0009148312
        0.0008226345   0.0001403468  -0.0009137580   0.0008222886  -0.0001402189
        0.0216587891   0.4675197191  -0.0000120172   0.0061179892  -0.0203081943
        0.0034729147   0.0061149979  -0.0202952741  -0.0034805568  -0.0090967665
       -0.0424783557   0.0000003713  -0.0370753451  -0.0987074548   0.0935167293
       -0.0370421921  -0.0986234177  -0.0934733571
       -0.0000000787  -0.0000011885   0.0006500236   0.0000105632  -0.0000246823
       -0.0686085355  -0.0000007229   0.0000002803   0.0005875129  -0.0004167539
        0.0007407662   0.0003102843   0.0004157653  -0.0007398739   0.0003093625
        0.0000062788  -0.0000120172   0.5229217831  -0.0078476633   0.0248858808
       -0.0015701423   0.0078504241  -0.0248933170  -0.0015815526  -0.0000091532
        0.0000002156  -0.0453977218   0.0608159372   0.0936428042  -0.2037637336
       -0.0608245966  -0.0935988681  -0.2038572806
       -0.0168451925  -0.0147749532   0.0260182032  -0.0660866521  -0.0367678422
        0.0592767907   0.0006911392  -0.0002175116   0.0003062601   0.0009620948
       -0.0001318697   0.0004722235  -0.0073695810  -0.0005420216   0.0006150183
        0.0031868598   0.0061179892  -0.0078476633   0.0813051033   0.0402217208
       -0.0701814833   0.0037859135   0.0037605327  -0.0079796751   0.0004273395
        0.0002720354  -0.0004865738  -0.0001156751   0.0025145965  -0.0002019191
        0.0000586505  -0.0004526763   0.0000088190
       -0.0018957655  -0.0002727648   0.0019575597  -0.0367696145  -0.0955278502
        0.0875759146   0.0003789440   0.0004488131  -0.0004021659  -0.0000899889
       -0.0001729524   0.0001977263  -0.0003848188   0.0006710042   0.0000260372
       -0.0067561754  -0.0203081943   0.0248858808   0.0402217208   0.1135106243
       -0.1036892831   0.0037572161   0.0067904144  -0.0117784725  -0.0003257960
        0.0007148262   0.0001347084   0.0023587394  -0.0065802414   0.0005798548
       -0.0004944613   0.0007263209   0.0005122397
        0.0032438958   0.0012568324  -0.0015685086   0.0595170460   0.0879409884
       -0.1986538522   0.0000130339  -0.0003216090   0.0000366799  -0.0005087378
       -0.0001363016   0.0007811538   0.0006350867  -0.0001999736   0.0012773606
       -0.0000360651   0.0034729147  -0.0015701423  -0.0701814833  -0.1036892831
        0.2266886607   0.0079811369   0.0117930514  -0.0290947285  -0.0003035663
       -0.0001071779   0.0000384283  -0.0004197731   0.0005159999   0.0012803741
        0.0000594263  -0.0005254417   0.0007845742
       -0.0168442015  -0.0147683559  -0.0260218068  -0.0660857021  -0.0367423911
       -0.0592895768   0.0006900381  -0.0002168629  -0.0003054832  -0.0073696128
       -0.0005406441  -0.0006161738   0.0009631577  -0.0001323805  -0.0004731738
        0.0031866858   0.0061149979   0.0078504241   0.0037859135   0.0037572161
        0.0079811369   0.0813036556   0.0401944754   0.0701937961   0.0004274095
        0.0002719200   0.0004868505   0.0000584699  -0.0004526649  -0.0000090216
       -0.0001158138   0.0025146899   0.0002030286
       -0.0018962560  -0.0002710473  -0.0019562412  -0.0367423303  -0.0954563343
       -0.0875308993   0.0003777154   0.0004474681   0.0004014604  -0.0003855621
        0.0006705365  -0.0000272403  -0.0000903212  -0.0001725844  -0.0001982646
       -0.0067559844  -0.0202952741  -0.0248933170   0.0037605327   0.0067904144
        0.0117930514   0.0401944754   0.1134254512   0.1036414777  -0.0003259745
        0.0007148644  -0.0001345134  -0.0004944499   0.0007261650  -0.0005123172
        0.0023581549  -0.0065796596  -0.0005831966
       -0.0032434468  -0.0012574729  -0.0015697378  -0.0595307538  -0.0878974032
       -0.1987208508  -0.0000132766   0.0003211663   0.0000357718  -0.0006343575
        0.0002009857   0.0012771227   0.0005098666   0.0001367214   0.0007830584
        0.0000333416  -0.0034805568  -0.0015815526  -0.0079796751  -0.0117784725
       -0.0290947285   0.0701937961   0.1036414777   0.2267682120   0.0003034420
        0.0001074509   0.0000384445  -0.0000595823   0.0005253395   0.0007844139
        0.0004206460  -0.0005192361   0.0012798465
       -0.0006749633   0.0037399195   0.0000002710  -0.0150460746   0.0028695938
        0.0000002014  -0.0009218340   0.0002650169   0.0000001744   0.0004328356
        0.0000578745   0.0002865329   0.0004324629   0.0000576245  -0.0002862881
       -0.2831782527  -0.0090967665  -0.0000091532   0.0004273395  -0.0003257960
       -0.0003035663   0.0004274095  -0.0003259745   0.0003034420   0.3279409693
        0.0080243211   0.0000104024  -0.0149208890  -0.0026335210   0.0023971764
       -0.0149190033  -0.0026322922  -0.0023991930
        0.0025863877  -0.0052161874  -0.0000009099   0.0295003459  -0.0022872088
        0.0000001592   0.0017160063  -0.0001326977  -0.0000000965  -0.0001347681
       -0.0001410469   0.0000022533  -0.0001343195  -0.0001408035  -0.0000022391
       -0.0090694133  -0.0424783557   0.0000002156   0.0002720354   0.0007148262
       -0.0001071779   0.0002719200   0.0007148644   0.0001074509   0.0080243211
        0.0505990881   0.0000008571  -0.0165227525  -0.0008171801   0.0012281588
       -0.0165097630  -0.0008152988  -0.0012286715
        0.0000000837  -0.0000012457   0.0005845983   0.0000060461  -0.0000006232
        0.0002769172   0.0000004105  -0.0000000094   0.0002314170   0.0001261359
       -0.0000144311   0.0000439329  -0.0001260569   0.0000145479   0.0000442500
       -0.0000090692   0.0000003713  -0.0453977218  -0.0004865738   0.0001347084
        0.0000384283   0.0004868505  -0.0001345134   0.0000384445   0.0000104024
        0.0000008571   0.0481223909   0.0288237940   0.0029937009  -0.0019894082
       -0.0288320233  -0.0029933628  -0.0019932492
        0.0008750596   0.0007762555  -0.0008431840   0.0031821353   0.0051350641
       -0.0082070242  -0.0000328396  -0.0001289289   0.0000584735  -0.0000547523
       -0.0000469146  -0.0000319850  -0.0001694867   0.0001698465   0.0002021628
       -0.0684793133  -0.0370753451   0.0608159372  -0.0001156751   0.0023587394
       -0.0004197731   0.0000584699  -0.0004944499  -0.0000595823  -0.0149208890
       -0.0165227525   0.0288237940   0.0761579445   0.0416335201  -0.0714842438
        0.0034993468   0.0041949653  -0.0088545750
       -0.0009324811   0.0008622210   0.0001095922  -0.0072730411  -0.0201909793
        0.0251777496  -0.0003204842   0.0003297565  -0.0001090405   0.0000211187
       -0.0000668535  -0.0000503192   0.0006367785   0.0001523351  -0.0004071357
       -0.0373855468  -0.0987074548   0.0936428042   0.0025145965  -0.0065802414
        0.0005159999  -0.0004526649   0.0007261650   0.0005253395  -0.0026335210
       -0.0008171801   0.0029937009   0.0416335201   0.1171595491  -0.1104123631
        0.0041917252   0.0071326824  -0.0119863277
        0.0000522949  -0.0005042240   0.0003058154  -0.0001878411   0.0042825874
       -0.0016264391   0.0001019342  -0.0002685209   0.0000462987   0.0000351898
        0.0000473281  -0.0003289789  -0.0004536263   0.0000401654   0.0004097008
        0.0608916062   0.0935167293  -0.2037637336  -0.0002019191   0.0005798548
        0.0012803741  -0.0000090216  -0.0005123172   0.0007844139   0.0023971764
        0.0012281588  -0.0019894082  -0.0714842438  -0.1104123631   0.2335331393
        0.0088584504   0.0120026015  -0.0286511823
        0.0008752951   0.0007769190   0.0008440181   0.0031808444   0.0051312279
        0.0082091820  -0.0000329208  -0.0001289622  -0.0000584798  -0.0001701611
        0.0001699460  -0.0002020992  -0.0000547277  -0.0000469272   0.0000316946
       -0.0684713138  -0.0370421921  -0.0608245966   0.0000586505  -0.0004944613
        0.0000594263  -0.0001158138   0.0023581549   0.0004206460  -0.0149190033
       -0.0165097630  -0.0288320233   0.0034993468   0.0041917252   0.0088584504
        0.0761498037   0.0415943329   0.0714937816
       -0.0009330297   0.0008613047  -0.0001095084  -0.0072710871  -0.0201790339
       -0.0251863479  -0.0003205488   0.0003293511   0.0001088905   0.0006371685
        0.0001529751   0.0004068171   0.0000208970  -0.0000667794   0.0000507956
       -0.0373524195  -0.0986234177  -0.0935988681  -0.0004526763   0.0007263209
       -0.0005254417   0.0025146899  -0.0065796596  -0.0005192361  -0.0026322922
       -0.0008152988  -0.0029933628   0.0041949653   0.0071326824   0.0120026015
        0.0415943329   0.1170615550   0.1103636604
       -0.0000529017   0.0005049622   0.0003055866   0.0001846688  -0.0042902296
       -0.0016391100  -0.0001020488   0.0002687222   0.0000465049   0.0004543843
       -0.0000403965   0.0004099852  -0.0000354908  -0.0000474057  -0.0003284613
       -0.0609004730  -0.0934733571  -0.2038572806   0.0000088190   0.0005122397
        0.0007845742   0.0002030286  -0.0005831966   0.0012798465  -0.0023991930
       -0.0012286715  -0.0019932492  -0.0088545750  -0.0119863277  -0.0286511823
        0.0714937816   0.1103636604   0.2336427859
