
                                 *****************
                                 * O   R   C   A *
                                 *****************

                                            #,                                       
                                            ###                                      
                                            ####                                     
                                            #####                                    
                                            ######                                   
                                           ########,                                 
                                     ,,################,,,,,                         
                               ,,#################################,,                 
                          ,,##########################################,,             
                       ,#########################################, ''#####,          
                    ,#############################################,,   '####,        
                  ,##################################################,,,,####,       
                ,###########''''           ''''###############################       
              ,#####''   ,,,,##########,,,,          '''####'''          '####       
            ,##' ,,,,###########################,,,                        '##       
           ' ,,###''''                  '''############,,,                           
         ,,##''                                '''############,,,,        ,,,,,,###''
      ,#''                                            '''#######################'''  
     '                                                          ''''####''''         
             ,#######,   #######,   ,#######,      ##                                
            ,#'     '#,  ##    ##  ,#'     '#,    #''#        ######   ,####,        
            ##       ##  ##   ,#'  ##            #'  '#       #        #'  '#        
            ##       ##  #######   ##           ,######,      #####,   #    #        
            '#,     ,#'  ##    ##  '#,     ,#' ,#      #,         ##   #,  ,#        
             '#######'   ##     ##  '#######'  #'      '#     #####' # '####'        



                  #######################################################
                  #                        -***-                        #
                  #          Department of theory and spectroscopy      #
                  #    Directorship and core code : Frank Neese         #
                  #        Max Planck Institute fuer Kohlenforschung    #
                  #                Kaiser Wilhelm Platz 1               #
                  #                 D-45470 Muelheim/Ruhr               #
                  #                      Germany                        #
                  #                                                     #
                  #                  All rights reserved                #
                  #                        -***-                        #
                  #######################################################


                         Program Version 5.0.3 -  RELEASE  -


 With contributions from (in alphabetic order):
   Daniel Aravena         : Magnetic Suceptibility
   Michael Atanasov       : Ab Initio Ligand Field Theory (pilot matlab implementation)
   Alexander A. Auer      : GIAO ZORA, VPT2 properties, NMR spectrum
   Ute Becker             : Parallelization
   Giovanni Bistoni       : ED, misc. LED, open-shell LED, HFLD
   Martin Brehm           : Molecular dynamics
   Dmytro Bykov           : SCF Hessian
   Vijay G. Chilkuri      : MRCI spin determinant printing, contributions to CSF-ICE
   Dipayan Datta          : RHF DLPNO-CCSD density
   Achintya Kumar Dutta   : EOM-CC, STEOM-CC
   Dmitry Ganyushin       : Spin-Orbit,Spin-Spin,Magnetic field MRCI
   Miquel Garcia          : C-PCM and meta-GGA Hessian, CC/C-PCM, Gaussian charge scheme
   Yang Guo               : DLPNO-NEVPT2, F12-NEVPT2, CIM, IAO-localization
   Andreas Hansen         : Spin unrestricted coupled pair/coupled cluster methods
   Benjamin Helmich-Paris : MC-RPA, TRAH-SCF, COSX integrals
   Lee Huntington         : MR-EOM, pCC
   Robert Izsak           : Overlap fitted RIJCOSX, COSX-SCS-MP3, EOM
   Marcus Kettner         : VPT2
   Christian Kollmar      : KDIIS, OOCD, Brueckner-CCSD(T), CCSD density, CASPT2, CASPT2-K
   Simone Kossmann        : Meta GGA functionals, TD-DFT gradient, OOMP2, MP2 Hessian
   Martin Krupicka        : Initial AUTO-CI
   Lucas Lang             : DCDCAS
   Marvin Lechner         : AUTO-CI (C++ implementation), FIC-MRCC
   Dagmar Lenk            : GEPOL surface, SMD
   Dimitrios Liakos       : Extrapolation schemes; Compound Job, initial MDCI parallelization
   Dimitrios Manganas     : Further ROCIS development; embedding schemes
   Dimitrios Pantazis     : SARC Basis sets
   Anastasios Papadopoulos: AUTO-CI, single reference methods and gradients
   Taras Petrenko         : DFT Hessian,TD-DFT gradient, ASA, ECA, R-Raman, ABS, FL, XAS/XES, NRVS
   Peter Pinski           : DLPNO-MP2, DLPNO-MP2 Gradient
   Christoph Reimann      : Effective Core Potentials
   Marius Retegan         : Local ZFS, SOC
   Christoph Riplinger    : Optimizer, TS searches, QM/MM, DLPNO-CCSD(T), (RO)-DLPNO pert. Triples
   Tobias Risthaus        : Range-separated hybrids, TD-DFT gradient, RPA, STAB
   Michael Roemelt        : Original ROCIS implementation
   Masaaki Saitow         : Open-shell DLPNO-CCSD energy and density
   Barbara Sandhoefer     : DKH picture change effects
   Avijit Sen             : IP-ROCIS
   Kantharuban Sivalingam : CASSCF convergence, NEVPT2, FIC-MRCI
   Bernardo de Souza      : ESD, SOC TD-DFT
   Georgi Stoychev        : AutoAux, RI-MP2 NMR, DLPNO-MP2 response
   Willem Van den Heuvel  : Paramagnetic NMR
   Boris Wezisla          : Elementary symmetry handling
   Frank Wennmohs         : Technical directorship


 We gratefully acknowledge several colleagues who have allowed us to
 interface, adapt or use parts of their codes:
   Stefan Grimme, W. Hujo, H. Kruse, P. Pracht,  : VdW corrections, initial TS optimization,
                  C. Bannwarth, S. Ehlert          DFT functionals, gCP, sTDA/sTD-DF
   Ed Valeev, F. Pavosevic, A. Kumar             : LibInt (2-el integral package), F12 methods
   Garnet Chan, S. Sharma, J. Yang, R. Olivares  : DMRG
   Ulf Ekstrom                                   : XCFun DFT Library
   Mihaly Kallay                                 : mrcc  (arbitrary order and MRCC methods)
   Jiri Pittner, Ondrej Demel                    : Mk-CCSD
   Frank Weinhold                                : gennbo (NPA and NBO analysis)
   Christopher J. Cramer and Donald G. Truhlar   : smd solvation model
   Lars Goerigk                                  : TD-DFT with DH, B97 family of functionals
   V. Asgeirsson, H. Jonsson                     : NEB implementation
   FAccTs GmbH                                   : IRC, NEB, NEB-TS, DLPNO-Multilevel, CI-OPT
                                                   MM, QMMM, 2- and 3-layer-ONIOM, Crystal-QMMM,
                                                   LR-CPCM, SF, NACMEs, symmetry and pop. for TD-DFT,
                                                   nearIR, NL-DFT gradient (VV10), updates on ESD,
                                                   ML-optimized integration grids
   S Lehtola, MJT Oliveira, MAL Marques          : LibXC Library
   Liviu Ungur et al                             : ANISO software


 Your calculation uses the libint2 library for the computation of 2-el integrals
 For citations please refer to: http://libint.valeyev.net

 Your ORCA version has been built with support for libXC version: 5.1.0
 For citations please refer to: https://tddft.org/programs/libxc/

 This ORCA versions uses:
   CBLAS   interface :  Fast vector & matrix operations
   LAPACKE interface :  Fast linear algebra routines
   SCALAPACK package :  Parallel linear algebra routines
   Shared memory     :  Shared parallel matrices
   BLAS/LAPACK       :  OpenBLAS 0.3.19 NO_AFFINITY VORTEX SINGLE_THREADED
        Core in use  :  VORTEX
   Copyright (c) 2011-2014, The OpenBLAS Project




################################################################################


                                COMPOUND JOB MainJOB 
Basename: propane_hessian_Compound_0

################################################################################

================================================================================
                                       INPUT FILE
================================================================================
NAME = propane_hessian_Compound_0.inp
|  1> * xyz   0   1
|  2>    C    -5.467000     1.905000    -0.072000
|  3>    C    -3.959000     1.905000    -0.072000
|  4>    H    -5.856000     2.951000    -0.072000
|  5>    H    -5.860000     1.382000    -0.976000
|  6>    H    -5.860000     1.381000     0.833000
|  7>    C    -3.400000     0.505000    -0.072000
|  8>    H    -3.585000     2.457000    -0.974000
|  9>    H    -3.585000     2.457000     0.831000
| 10>    H    -2.283000     0.532000    -0.072000
| 11>    H    -3.739000    -0.054000     0.833000
| 12>    H    -3.739000    -0.054000    -0.977000
| 13>   *
| 14>  
| 15>  %pal nprocs  1 end
| 16>  %maxcore  3000
| 17>  
| 18> 
| 19>                          ****END OF INPUT****
================================================================================
================================================================================

----- Orbital basis set information -----
Your calculation utilizes the basis: def2-SVP
   F. Weigend and R. Ahlrichs, Phys. Chem. Chem. Phys. 7, 3297 (2005).



################################################################################


                                COMPOUND JOB  1 
Basename: propane_hessian_Compound_1
NOTE: please remember that MaxCore and PAL settings will be ignored.

################################################################################

================================================================================
                                       INPUT FILE
================================================================================
NAME = propane_hessian_Compound_1.inp
|  1>   ! opt r2SCAN-3c nopop
|  2>   %base "propane_initial"
|  3> 
|  4>                          ****END OF INPUT****
================================================================================
Your calculation utilizes the geometrical counterpoise correction gCP
Please cite in your paper:
H.Kruse, S. Grimme J.Chem.Phys., 136, (2012), 154101 
   

Your calculation utilizes the atom-pairwise dispersion correction
based on tight binding partial charges (D4)
Cite in your paper:
E.Caldeweyher, C.Bannwarth, S.Grimme, J.Chem.Phys., (2017), 147, 034112.
E.Caldeweyher, S.Ehlert, A.Hansen, H.Neugebauer, S.Grimme, J.Chem.Phys., (2018), in progress.
   

================================================================================

----- Orbital basis set information -----
Your calculation utilizes the basis: def2-mTZVPP
   Stefan Grimme, Andreas Hansen, Sebastian Ehlert, and Jan-Michael Mewes 
   J. Chem. Phys. 154, 000000 (2021). DOI: 10.1063/5.0040021

----- AuxJ basis set information -----
Your calculation utilizes the basis: def2-mTZVPP/J
   Stefan Grimme, Andreas Hansen, Sebastian Ehlert, and Jan-Michael Mewes 
   J. Chem. Phys. 154, 000000 (2021). DOI: 10.1063/5.0040021

================================================================================
                                        WARNINGS
                       Please study these warnings very carefully!
================================================================================

WARNING: Old DensityContainer found on disk!
         Will remove this file - 
         If you want to keep old densities, please start your calculation with a different basename. 

Using LibXC functional ID 497 : Re-regularized SCAN exchange by Furness et al
[ 1]  J. W. Furness, A. D. Kaplan, J. Ning, J. P. Perdew, and J. Sun, J. Phys. Chem. Lett. 11, 8208 (2020)
[ 2]  J. W. Furness, A. D. Kaplan, J. Ning, J. P. Perdew, and J. Sun, J. Phys. Chem. Lett. 11, 9248 (2020)
Using LibXC functional ID 498 : Re-regularized SCAN correlation by Furness et al
[ 1]  J. W. Furness, A. D. Kaplan, J. Ning, J. P. Perdew, and J. Sun, J. Phys. Chem. Lett. 11, 8208 (2020)
[ 2]  J. W. Furness, A. D. Kaplan, J. Ning, J. P. Perdew, and J. Sun, J. Phys. Chem. Lett. 11, 9248 (2020)
Using LibXC functional ID 497 : Re-regularized SCAN exchange by Furness et al
[ 1]  J. W. Furness, A. D. Kaplan, J. Ning, J. P. Perdew, and J. Sun, J. Phys. Chem. Lett. 11, 8208 (2020)
[ 2]  J. W. Furness, A. D. Kaplan, J. Ning, J. P. Perdew, and J. Sun, J. Phys. Chem. Lett. 11, 9248 (2020)
Using LibXC functional ID 498 : Re-regularized SCAN correlation by Furness et al
[ 1]  J. W. Furness, A. D. Kaplan, J. Ning, J. P. Perdew, and J. Sun, J. Phys. Chem. Lett. 11, 8208 (2020)
[ 2]  J. W. Furness, A. D. Kaplan, J. Ning, J. P. Perdew, and J. Sun, J. Phys. Chem. Lett. 11, 9248 (2020)

WARNING: Geometry Optimization
  ===> : Switching off AutoStart
         For restart on a previous wavefunction, please use MOREAD

INFO   : the flag for use of the SHARK integral package has been found!


                       *****************************
                       * Geometry Optimization Run *
                       *****************************

Geometry optimization settings:
Update method            Update   .... BFGS
Choice of coordinates    CoordSys .... Z-matrix Internals
Initial Hessian          InHess   .... Almoef's Model

Convergence Tolerances:
Energy Change            TolE     ....  5.0000e-06 Eh
Max. Gradient            TolMAXG  ....  3.0000e-04 Eh/bohr
RMS Gradient             TolRMSG  ....  1.0000e-04 Eh/bohr
Max. Displacement        TolMAXD  ....  4.0000e-03 bohr
RMS Displacement         TolRMSD  ....  2.0000e-03 bohr
Strict Convergence                ....  False
------------------------------------------------------------------------------
                        ORCA OPTIMIZATION COORDINATE SETUP
------------------------------------------------------------------------------

The optimization will be done in new redundant internal coordinates
Making redundant internal coordinates   ...  (new redundants) done
Evaluating the initial hessian          ...  (Almloef) done
Evaluating the coordinates              ...  done
Calculating the B-matrix                .... done
Calculating the G-matrix                .... done
Diagonalizing the G-matrix              .... done
The first mode is                       ....   19
The number of degrees of freedom        ....   27

    -----------------------------------------------------------------
                    Redundant Internal Coordinates


    -----------------------------------------------------------------
         Definition                    Initial Value    Approx d2E/dq
    -----------------------------------------------------------------
      1. B(C   1,C   0)                  1.5080         0.405021   
      2. B(H   2,C   0)                  1.1160         0.327307   
      3. B(H   3,C   0)                  1.1159         0.327438   
      4. B(H   4,C   0)                  1.1172         0.325903   
      5. B(C   5,C   1)                  1.5075         0.405802   
      6. B(H   6,C   1)                  1.1217         0.320529   
      7. B(H   7,C   1)                  1.1225         0.319583   
      8. B(H   8,C   5)                  1.1173         0.325706   
      9. B(H   9,C   5)                  1.1164         0.326774   
     10. B(H  10,C   5)                  1.1164         0.326774   
     11. A(H   2,C   0,H   4)          108.4821         0.282113   
     12. A(C   1,C   0,H   2)          110.3998         0.323539   
     13. A(H   3,C   0,H   4)          108.2124         0.282131   
     14. A(H   2,C   0,H   3)          108.4533         0.282319   
     15. A(C   1,C   0,H   3)          110.6212         0.323560   
     16. A(C   1,C   0,H   4)          110.5965         0.323311   
     17. A(C   0,C   1,C   5)          111.7661         0.373699   
     18. A(H   6,C   1,H   7)          107.0859         0.280351   
     19. A(C   5,C   1,H   7)          109.4601         0.322377   
     20. A(C   0,C   1,H   7)          109.4623         0.322275   
     21. A(C   5,C   1,H   6)          109.4746         0.322533   
     22. A(C   0,C   1,H   6)          109.4769         0.322431   
     23. A(H   8,C   5,H   9)          108.4004         0.282016   
     24. A(C   1,C   5,H   9)          110.6346         0.323555   
     25. A(C   1,C   5,H   8)          110.3814         0.323381   
     26. A(H   9,C   5,H  10)          108.3123         0.282159   
     27. A(H   8,C   5,H  10)          108.4004         0.282016   
     28. A(C   1,C   5,H  10)          110.6346         0.323555   
     29. D(H   7,C   1,C   0,H   2)     58.5627         0.013004   
     30. D(H   6,C   1,C   0,H   2)    -58.5345         0.013004   
     31. D(H   7,C   1,C   0,H   4)    -61.5083         0.013004   
     32. D(H   7,C   1,C   0,H   3)    178.6138         0.013004   
     33. D(C   5,C   1,C   0,H   4)     59.9289         0.013004   
     34. D(H   6,C   1,C   0,H   4)   -178.6056         0.013004   
     35. D(C   5,C   1,C   0,H   3)    -59.9489         0.013004   
     36. D(C   5,C   1,C   0,H   2)    180.0000         0.013004   
     37. D(H   6,C   1,C   0,H   3)     61.5166         0.013004   
     38. D(H   9,C   5,C   1,H   6)    178.5150         0.013053   
     39. D(H   9,C   5,C   1,C   0)    -60.0182         0.013053   
     40. D(H   8,C   5,C   1,H   7)    -58.5615         0.013053   
     41. D(H   8,C   5,C   1,H   6)     58.5332         0.013053   
     42. D(H   9,C   5,C   1,H   7)     61.4203         0.013053   
     43. D(H   8,C   5,C   1,C   0)    180.0000         0.013053   
     44. D(H  10,C   5,C   1,H   7)   -178.5433         0.013053   
     45. D(H  10,C   5,C   1,H   6)    -61.4486         0.013053   
     46. D(H  10,C   5,C   1,C   0)     60.0182         0.013053   
    -----------------------------------------------------------------

Number of atoms                         .... 11
Number of degrees of freedom            .... 46

         *************************************************************
         *                GEOMETRY OPTIMIZATION CYCLE   1            *
         *************************************************************
---------------------------------
CARTESIAN COORDINATES (ANGSTROEM)
---------------------------------
  C     -5.467000    1.905000   -0.072000
  C     -3.959000    1.905000   -0.072000
  H     -5.856000    2.951000   -0.072000
  H     -5.860000    1.382000   -0.976000
  H     -5.860000    1.381000    0.833000
  C     -3.400000    0.505000   -0.072000
  H     -3.585000    2.457000   -0.974000
  H     -3.585000    2.457000    0.831000
  H     -2.283000    0.532000   -0.072000
  H     -3.739000   -0.054000    0.833000
  H     -3.739000   -0.054000   -0.977000

----------------------------
CARTESIAN COORDINATES (A.U.)
----------------------------
  NO LB      ZA    FRAG     MASS         X           Y           Z
   0 C     6.0000    0    12.011  -10.331133    3.599928   -0.136060
   1 C     6.0000    0    12.011   -7.481426    3.599928   -0.136060
   2 H     1.0000    0     1.008  -11.066236    5.576582   -0.136060
   3 H     1.0000    0     1.008  -11.073795    2.611602   -1.844373
   4 H     1.0000    0     1.008  -11.073795    2.609712    1.574142
   5 C     6.0000    0    12.011   -6.425069    0.954312   -0.136060
   6 H     1.0000    0     1.008   -6.774668    4.643057   -1.840593
   7 H     1.0000    0     1.008   -6.774668    4.643057    1.570362
   8 H     1.0000    0     1.008   -4.314245    1.005334   -0.136060
   9 H     1.0000    0     1.008   -7.065686   -0.102045    1.574142
  10 H     1.0000    0     1.008   -7.065686   -0.102045   -1.846262

--------------------------------
INTERNAL COORDINATES (ANGSTROEM)
--------------------------------
 C      0   0   0     0.000000000000     0.00000000     0.00000000
 C      1   0   0     1.508000000000     0.00000000     0.00000000
 H      1   2   0     1.115991487423   110.39981170     0.00000000
 H      1   2   3     1.115882610313   110.62117600   120.05109098
 H      1   2   3     1.117161581867   110.59649497   239.92892161
 C      2   1   3     1.507475041253   111.76612015   180.00000000
 H      2   1   3     1.121688013665   109.47685505   301.46552316
 H      2   1   3     1.122492316232   109.46233627    58.56273541
 H      6   2   1     1.117326272850   110.38144256   180.00000000
 H      6   2   1     1.116434951083   110.63456468   299.98179972
 H      6   2   1     1.116434951083   110.63456468    60.01820028

---------------------------
INTERNAL COORDINATES (A.U.)
---------------------------
 C      0   0   0     0.000000000000     0.00000000     0.00000000
 C      1   0   0     2.849707009953     0.00000000     0.00000000
 H      1   2   0     2.108918279016   110.39981170     0.00000000
 H      1   2   3     2.108712531098   110.62117600   120.05109098
 H      1   2   3     2.111129437067   110.59649497   239.92892161
 C      2   1   3     2.848714981689   111.76612015   180.00000000
 H      2   1   3     2.119683153529   109.47685505   301.46552316
 H      2   1   3     2.121203065110   109.46233627    58.56273541
 H      6   2   1     2.111440657921   110.38144256   180.00000000
 H      6   2   1     2.109756303885   110.63456468   299.98179972
 H      6   2   1     2.109756303885   110.63456468    60.01820028

---------------------
BASIS SET INFORMATION
---------------------
There are 2 groups of distinct atoms

 Group   1 Type C   : 11s6p1d contracted to 5s3p1d pattern {62111/411/1}
 Group   2 Type H   : 4s1p contracted to 2s1p pattern {31/1}

Atom   0C    basis set group =>   1
Atom   1C    basis set group =>   1
Atom   2H    basis set group =>   2
Atom   3H    basis set group =>   2
Atom   4H    basis set group =>   2
Atom   5C    basis set group =>   1
Atom   6H    basis set group =>   2
Atom   7H    basis set group =>   2
Atom   8H    basis set group =>   2
Atom   9H    basis set group =>   2
Atom  10H    basis set group =>   2
---------------------------------
AUXILIARY/J BASIS SET INFORMATION
---------------------------------
There are 2 groups of distinct atoms

 Group   1 Type C   : 8s3p3d contracted to 6s3p3d pattern {311111/111/111}
 Group   2 Type H   : 5s2p1d contracted to 3s1p1d pattern {311/2/1}

Atom   0C    basis set group =>   1
Atom   1C    basis set group =>   1
Atom   2H    basis set group =>   2
Atom   3H    basis set group =>   2
Atom   4H    basis set group =>   2
Atom   5C    basis set group =>   1
Atom   6H    basis set group =>   2
Atom   7H    basis set group =>   2
Atom   8H    basis set group =>   2
Atom   9H    basis set group =>   2
Atom  10H    basis set group =>   2
------------------------------------------------------------------------------
                           ORCA GTO INTEGRAL CALCULATION
                           -- RI-GTO INTEGRALS CHOSEN --
------------------------------------------------------------------------------
------------------------------------------------------------------------------
                   ___                                                        
                  /   \      - P O W E R E D   B Y -                         
                 /     \                                                     
                 |  |  |   _    _      __       _____    __    __             
                 |  |  |  | |  | |    /  \     |  _  \  |  |  /  |          
                  \  \/   | |  | |   /    \    | | | |  |  | /  /          
                 / \  \   | |__| |  /  /\  \   | |_| |  |  |/  /          
                |  |  |   |  __  | /  /__\  \  |    /   |      \           
                |  |  |   | |  | | |   __   |  |    \   |  |\   \          
                \     /   | |  | | |  |  |  |  | |\  \  |  | \   \       
                 \___/    |_|  |_| |__|  |__|  |_| \__\ |__|  \__/        
                                                                              
                      - O R C A' S   B I G   F R I E N D -                    
                                      &                                       
                       - I N T E G R A L  F E E D E R -                       
                                                                              
 v1 FN, 2020, v2 2021                                                         
------------------------------------------------------------------------------


Reading SHARK input file propane_initial.SHARKINP.tmp ... ok
----------------------
SHARK INTEGRAL PACKAGE
----------------------

Number of atoms                             ...     11
Number of basis functions                   ...     97
Number of shells                            ...     51
Maximum angular momentum                    ...      2
Integral batch strategy                     ... SHARK/LIBINT Hybrid
RI-J (if used) integral strategy            ... SPLIT-RIJ (Revised 2003 algorithm where possible)
Printlevel                                  ...      1
Contraction scheme used                     ... SEGMENTED contraction
Coulomb Range Separation                    ... NOT USED
Exchange Range Separation                   ... NOT USED
Finite Nucleus Model                        ... NOT USED
Auxiliary Coulomb fitting basis             ... AVAILABLE
   # of basis functions in Aux-J            ...    178
   # of shells in Aux-J                     ...     76
   Maximum angular momentum in Aux-J        ...      2
Auxiliary J/K fitting basis                 ... NOT available
Auxiliary Correlation fitting basis         ... NOT available
Auxiliary 'external' fitting basis          ... NOT available
Integral threshold                          ...     2.500000e-11
Primitive cut-off                           ...     2.500000e-12
Primitive pair pre-selection threshold      ...     2.500000e-12

Calculating pre-screening integrals         ... done (  0.0 sec) Dimension = 51
Organizing shell pair data                  ... done (  0.0 sec)
Shell pair information
Total number of shell pairs                 ...      1326
Shell pairs after pre-screening             ...      1313
Total number of primitive shell pairs       ...      4555
Primitive shell pairs kept                  ...      3705
          la=0 lb=0:    488 shell pairs
          la=1 lb=0:    523 shell pairs
          la=1 lb=1:    152 shell pairs
          la=2 lb=0:     93 shell pairs
          la=2 lb=1:     51 shell pairs
          la=2 lb=2:      6 shell pairs

Calculating one electron integrals          ... done (  0.0 sec)
Calculating RI/J V-Matrix + Cholesky decomp.... done (  0.0 sec)
Calculating Nuclear repulsion               ... done (  0.0 sec) ENN=     82.570232588887 Eh

SHARK setup successfully completed in   0.0 seconds

Maximum memory used throughout the entire GTOINT-calculation: 8.7 MB
-------------------------------------------------------------------------------
                                 ORCA SCF
-------------------------------------------------------------------------------

------------
SCF SETTINGS
------------
Hamiltonian:
 Density Functional     Method          .... DFT(GTOs)
  Functional kind                       .... Exchange
  Functional name                       .... Re-regularized SCAN exchange by Furness et al
  Functional family                     .... MGGA
  Functional refs                              
    [ 0] J. W. Furness, A. D. Kaplan, J. Ning, J. P. Perdew, and J. Sun, J. Phys. Chem. Lett. 11, 8208 (2020)
    [ 1] J. W. Furness, A. D. Kaplan, J. Ning, J. P. Perdew, and J. Sun, J. Phys. Chem. Lett. 11, 9248 (2020)
  Functional external parameters         .... 8
 Parameter  0 :         c1 parameter
 Parameter  1 :         c2 parameter
 Parameter  2 :          d parameter
 Parameter  3 :         k1 parameter
 Parameter  4 :       taur parameter
 Parameter  5 :     alphar parameter
 Parameter  6 :        eta parameter
 Parameter  7 :        dp2 parameter
  Functional kind                       .... Correlation
  Functional name                       .... Re-regularized SCAN correlation by Furness et al
  Functional family                     .... MGGA
  Functional refs                              
    [ 0] J. W. Furness, A. D. Kaplan, J. Ning, J. P. Perdew, and J. Sun, J. Phys. Chem. Lett. 11, 8208 (2020)
    [ 1] J. W. Furness, A. D. Kaplan, J. Ning, J. P. Perdew, and J. Sun, J. Phys. Chem. Lett. 11, 9248 (2020)
  Functional external parameters         .... 0
 Gradients option       PostSCFGGA      .... off
   Density functional embedding theory  .... OFF
 RI-approximation to the Coulomb term is turned on
   Number of AuxJ basis functions       .... 178


General Settings:
 Integral files         IntName         .... propane_initial
 Hartree-Fock type      HFTyp           .... RHF
 Total Charge           Charge          ....    0
 Multiplicity           Mult            ....    1
 Number of Electrons    NEL             ....   26
 Basis Dimension        Dim             ....   97
 Nuclear Repulsion      ENuc            ....     82.5702325889 Eh

Convergence Acceleration:
 DIIS                   CNVDIIS         .... on
   Start iteration      DIISMaxIt       ....    12
   Startup error        DIISStart       ....  0.200000
   # of expansion vecs  DIISMaxEq       ....     5
   Bias factor          DIISBfac        ....   1.050
   Max. coefficient     DIISMaxC        ....  10.000
 Trust-Rad. Augm. Hess. CNVTRAH         .... auto
   Auto Start mean grad. ratio tolernc. ....  1.125000
   Auto Start start iteration           ....    20
   Auto Start num. interpolation iter.  ....    10
   Max. Number of Micro iterations      ....    16
   Max. Number of Macro iterations      .... Maxiter - #DIIS iter
   Number of Davidson start vectors     ....     2
   Converg. threshold I  (grad. norm)   ....   1.000e-05
   Converg. threshold II (energy diff.) ....   1.000e-08
   Grad. Scal. Fac. for Micro threshold ....   0.100
   Minimum threshold for Micro iter.    ....   0.010
   NR start threshold (gradient norm)   ....   0.001
   Initial trust radius                 ....   0.400
   Minimum AH scaling param. (alpha)    ....   1.000
   Maximum AH scaling param. (alpha)    .... 1000.000
   Orbital update algorithm             .... Taylor
   White noise on init. David. guess    .... on
   Maximum white noise                  ....   0.010
   Quad. conv. algorithm                .... NR
   COSX micro iterations for RIJONX calc.... off
 SOSCF                  CNVSOSCF        .... on
   Start iteration      SOSCFMaxIt      ....   150
   Startup grad/error   SOSCFStart      ....  0.003300
 Level Shifting         CNVShift        .... on
   Level shift para.    LevelShift      ....    0.2500
   Turn off err/grad.   ShiftErr        ....    0.0010
 Zerner damping         CNVZerner       .... off
 Static damping         CNVDamp         .... on
   Fraction old density DampFac         ....    0.7000
   Max. Damping (<1)    DampMax         ....    0.9800
   Min. Damping (>=0)   DampMin         ....    0.0000
   Turn off err/grad.   DampErr         ....    0.1000
 Fernandez-Rico         CNVRico         .... off

SCF Procedure:
 Maximum # iterations   MaxIter         ....   125
 SCF integral mode      SCFMode         .... Direct
   Integral package                     .... SHARK and LIBINT hybrid scheme
 Reset frequency        DirectResetFreq ....    20
 Integral Threshold     Thresh          ....  2.500e-11 Eh
 Primitive CutOff       TCut            ....  2.500e-12 Eh

Convergence Tolerance:
 Convergence Check Mode ConvCheckMode   .... Total+1el-Energy
 Convergence forced     ConvForced      .... 0
 Energy Change          TolE            ....  1.000e-08 Eh
 1-El. energy change                    ....  1.000e-05 Eh
 Orbital Gradient       TolG            ....  1.000e-05
 Orbital Rotation angle TolX            ....  1.000e-05
 DIIS Error             TolErr          ....  5.000e-07


Diagonalization of the overlap matrix:
Smallest eigenvalue                        ... 5.033e-04
Time for diagonalization                   ...    0.001 sec
Threshold for overlap eigenvalues          ... 1.000e-08
Number of eigenvalues below threshold      ... 0
Time for construction of square roots      ...    0.000 sec
Total time needed                          ...    0.001 sec

Time for model grid setup =    0.031 sec

------------------------------
INITIAL GUESS: MODEL POTENTIAL
------------------------------
Loading Hartree-Fock densities                     ... done
Calculating cut-offs                               ... done
Initializing the effective Hamiltonian             ... done
Setting up the integral package (SHARK)            ... done
Starting the Coulomb interaction                   ... done (   0.0 sec)
Reading the grid                                   ... done
Mapping shells                                     ... done
Starting the XC term evaluation                    ... done (   0.0 sec)
  promolecular density results
     # of electrons  =     25.996370687
     EX              =    -17.664600471
     EC              =     -0.816180391
     EX+EC           =    -18.480780862
Transforming the Hamiltonian                       ... done (   0.0 sec)
Diagonalizing the Hamiltonian                      ... done (   0.0 sec)
Back transforming the eigenvectors                 ... done (   0.0 sec)
Now organizing SCF variables                       ... done
                      ------------------
                      INITIAL GUESS DONE (   0.1 sec)
                      ------------------
-------------------
DFT GRID GENERATION
-------------------

General Integration Accuracy     IntAcc      ... 4.388
Radial Grid Type                 RadialGrid  ... OptM3 with GC (2021)
Angular Grid (max. ang.)         AngularGrid ... 4 (Lebedev-302)
Angular grid pruning method      GridPruning ... 4 (adaptive)
Weight generation scheme         WeightScheme... Becke
Basis function cutoff            BFCut       ... 1.0000e-11
Integration weight cutoff        WCut        ... 1.0000e-14
Angular grids for H and He will be reduced by one unit
Partially contracted basis set               ... off
Rotationally invariant grid construction     ... off

Total number of grid points                  ...    44016
Total number of batches                      ...      692
Average number of points per batch           ...       63
Average number of grid points per atom       ...     4001
Time for grid setup =    0.164 sec

--------------
SCF ITERATIONS
--------------
ITER       Energy         Delta-E        Max-DP      RMS-DP      [F,P]     Damp
               ***  Starting incremental Fock matrix formation  ***
  0   -118.9508553623   0.000000000000 0.03381659  0.00207985  0.1858237 0.7000
  1   -119.0202260489  -0.069370686601 0.02195815  0.00149970  0.0924528 0.7000
                               ***Turning on DIIS***
  2   -119.0453765052  -0.025150456230 0.03278950  0.00227238  0.0302590 0.0000
  3   -119.0794402157  -0.034063710510 0.01488366  0.00103090  0.0544922 0.0000
  4   -119.0919054864  -0.012465270724 0.00466588  0.00028642  0.0127396 0.0000
  5   -119.0925962578  -0.000690771382 0.00131612  0.00009486  0.0033663 0.0000
                      *** Initiating the SOSCF procedure ***
                           *** Shutting down DIIS ***
                      *** Re-Reading the Fockian *** 
                      *** Removing any level shift *** 
ITER      Energy       Delta-E        Grad      Rot      Max-DP    RMS-DP
  6   -119.09264423  -0.0000479712  0.000259  0.000259  0.000578  0.000046
               *** Restarting incremental Fock matrix formation ***
  7   -119.09264751  -0.0000032852  0.000153  0.000306  0.000289  0.000018
  8   -119.09264714   0.0000003770  0.000204  0.000175  0.000169  0.000010
                  ***Gradient check signals convergence***
              ***Rediagonalizing the Fockian in SOSCF/NRSCF***

               *****************************************************
               *                     SUCCESS                       *
               *           SCF CONVERGED AFTER   9 CYCLES          *
               *****************************************************


----------------
TOTAL SCF ENERGY
----------------

Total Energy       :         -119.09264800 Eh           -3240.67570 eV

Components:
Nuclear Repulsion  :           82.57023259 Eh            2246.85026 eV
Electronic Energy  :         -201.66288059 Eh           -5487.52596 eV
One Electron Energy:         -321.91223704 Eh           -8759.67730 eV
Two Electron Energy:          120.24935645 Eh            3272.15134 eV

Virial components:
Potential Energy   :         -237.36948652 Eh           -6459.15211 eV
Kinetic Energy     :          118.27683852 Eh            3218.47640 eV
Virial Ratio       :            2.00689746


DFT components:
N(Alpha)           :       12.999980963700 electrons
N(Beta)            :       12.999980963700 electrons
N(Total)           :       25.999961927399 electrons
E(X)               :      -18.383140366444 Eh       
E(C)               :       -0.776871501800 Eh       
E(XC)              :      -19.160011868243 Eh       
DFET-embed. en.    :        0.000000000000 Eh       

---------------
SCF CONVERGENCE
---------------

  Last Energy change         ...   -8.6197e-07  Tolerance :   1.0000e-08
  Last MAX-Density change    ...    4.9618e-06  Tolerance :   1.0000e-07
  Last RMS-Density change    ...    2.4708e-07  Tolerance :   5.0000e-09
  Last Orbital Gradient      ...    2.2619e-06  Tolerance :   1.0000e-05
  Last Orbital Rotation      ...    3.9440e-06  Tolerance :   1.0000e-05

             **** THE GBW FILE WAS UPDATED (propane_initial.gbw) ****
             **** DENSITY propane_initial.scfp WAS UPDATED ****
             **** ENERGY FILE WAS UPDATED (propane_initial.en.tmp) ****
             **** THE GBW FILE WAS UPDATED (propane_initial.gbw) ****
             **** DENSITY propane_initial.scfp WAS UPDATED ****
----------------
ORBITAL ENERGIES
----------------

  NO   OCC          E(Eh)            E(eV) 
   0   2.0000     -10.027889      -272.8727 
   1   2.0000     -10.021610      -272.7019 
   2   2.0000     -10.021520      -272.6994 
   3   2.0000      -0.747987       -20.3538 
   4   2.0000      -0.640265       -17.4225 
   5   2.0000      -0.539954       -14.6929 
   6   2.0000      -0.423935       -11.5358 
   7   2.0000      -0.403179       -10.9711 
   8   2.0000      -0.365100        -9.9349 
   9   2.0000      -0.343692        -9.3523 
  10   2.0000      -0.303453        -8.2574 
  11   2.0000      -0.302578        -8.2336 
  12   2.0000      -0.289974        -7.8906 
  13   0.0000       0.095064         2.5868 
  14   0.0000       0.128400         3.4939 
  15   0.0000       0.138452         3.7675 
  16   0.0000       0.146587         3.9888 
  17   0.0000       0.148321         4.0360 
  18   0.0000       0.166021         4.5177 
  19   0.0000       0.184315         5.0155 
  20   0.0000       0.196170         5.3381 
  21   0.0000       0.218243         5.9387 
  22   0.0000       0.223178         6.0730 
  23   0.0000       0.234088         6.3698 
  24   0.0000       0.240863         6.5542 
  25   0.0000       0.241083         6.5602 
  26   0.0000       0.251826         6.8525 
  27   0.0000       0.268261         7.2998 
  28   0.0000       0.286863         7.8059 
  29   0.0000       0.308421         8.3926 
  30   0.0000       0.407482        11.0882 
  31   0.0000       0.444031        12.0827 
  32   0.0000       0.470897        12.8138 
  33   0.0000       0.511223        13.9111 
  34   0.0000       0.519089        14.1251 
  35   0.0000       0.979040        26.6410 
  36   0.0000       1.030763        28.0485 
  37   0.0000       1.032122        28.0855 
  38   0.0000       1.039385        28.2831 
  39   0.0000       1.056517        28.7493 
  40   0.0000       1.057065        28.7642 
  41   0.0000       1.080204        29.3938 
  42   0.0000       1.106537        30.1104 
  43   0.0000       1.188981        32.3538 
  44   0.0000       1.199144        32.6304 
  45   0.0000       1.301899        35.4265 
  46   0.0000       1.304934        35.5091 
  47   0.0000       1.327098        36.1122 
  48   0.0000       1.351388        36.7731 
  49   0.0000       1.364240        37.1228 
  50   0.0000       1.375019        37.4162 
  51   0.0000       1.375729        37.4355 
  52   0.0000       1.390431        37.8356 
  53   0.0000       1.400828        38.1185 
  54   0.0000       1.534544        41.7571 
  55   0.0000       1.534863        41.7658 
  56   0.0000       1.615500        43.9600 
  57   0.0000       1.668366        45.3986 
  58   0.0000       1.670686        45.4617 
  59   0.0000       1.805995        49.1436 
  60   0.0000       1.874267        51.0014 
  61   0.0000       1.874485        51.0073 
  62   0.0000       1.924360        52.3645 
  63   0.0000       2.084436        56.7204 
  64   0.0000       2.138215        58.1838 
  65   0.0000       2.143004        58.3141 
  66   0.0000       2.164817        58.9077 
  67   0.0000       2.204048        59.9752 
  68   0.0000       2.225307        60.5537 
  69   0.0000       2.241321        60.9894 
  70   0.0000       2.255424        61.3732 
  71   0.0000       2.257744        61.4363 
  72   0.0000       2.279129        62.0182 
  73   0.0000       2.469239        67.1914 
  74   0.0000       2.519947        68.5712 
  75   0.0000       2.592843        70.5549 
  76   0.0000       2.595323        70.6223 
  77   0.0000       2.620881        71.3178 
  78   0.0000       2.623047        71.3767 
  79   0.0000       2.712351        73.8068 
  80   0.0000       2.754543        74.9549 
  81   0.0000       2.786459        75.8234 
  82   0.0000       2.795931        76.0812 
  83   0.0000       2.840915        77.3052 
  84   0.0000       2.863675        77.9245 
  85   0.0000       3.023173        82.2647 
  86   0.0000       3.207243        87.2735 
  87   0.0000       3.415025        92.9276 
  88   0.0000       3.472146        94.4819 
  89   0.0000       3.501888        95.2912 
  90   0.0000       3.532671        96.1289 
  91   0.0000       3.536343        96.2288 
  92   0.0000       3.570730        97.1645 
  93   0.0000       3.596173        97.8568 
  94   0.0000      21.756595       592.0271 
  95   0.0000      21.892505       595.7253 
  96   0.0000      21.928907       596.7159 
-------
TIMINGS
-------

Total SCF time: 0 days 0 hours 0 min 3 sec 

Total time                  ....       3.747 sec
Sum of individual times     ....       3.694 sec  ( 98.6%)

Fock matrix formation       ....       3.437 sec  ( 91.7%)
  Split-RI-J                ....       0.178 sec  (  5.2% of F)
  XC integration            ....       3.271 sec  ( 95.2% of F)
    Basis function eval.    ....       0.472 sec  ( 14.4% of XC)
    Density eval.           ....       0.928 sec  ( 28.4% of XC)
    XC-Functional eval.     ....       0.523 sec  ( 16.0% of XC)
    XC-Potential eval.      ....       1.286 sec  ( 39.3% of XC)
Diagonalization             ....       0.006 sec  (  0.2%)
Density matrix formation    ....       0.000 sec  (  0.0%)
Population analysis         ....       0.000 sec  (  0.0%)
Initial guess               ....       0.050 sec  (  1.3%)
Orbital Transformation      ....       0.000 sec  (  0.0%)
Orbital Orthonormalization  ....       0.000 sec  (  0.0%)
DIIS solution               ....       0.004 sec  (  0.1%)
SOSCF solution              ....       0.001 sec  (  0.0%)
Grid generation             ....       0.195 sec  (  5.2%)

Maximum memory used throughout the entire SCF-calculation: 20.8 MB


-------------------------------------------------------------------------------
                          DFT DISPERSION CORRECTION                            
                                                                               
                                 DFTD4 V2.5                                    
-------------------------------------------------------------------------------
The R2SCAN3C composite method is recognized
Using three-body term ABC
Active option DFTDOPT                   ...         5   

Starting D4
-------------------------   ----------------
Dispersion correction           -0.001709375
-------------------------   ----------------

ERROR: Number of atoms in ORCA and otool_gcp are different: 
ORCA: 11  gCP: 0 
NOTIFICATION: Different basis set in ORCA and otool_gcp:
ORCA: 97  gCP: 17 
If you are NOT using ECPs, check your basis set inputs!
------------------   -----------------
gCP correction             0.000000000
------------------   -----------------

-------------------------   --------------------
FINAL SINGLE POINT ENERGY      -119.094357374291
-------------------------   --------------------

------------------------------------------------------------------------------
                         ORCA SCF GRADIENT CALCULATION
------------------------------------------------------------------------------

Gradient of the Kohn-Sham DFT energy:
Kohn-Sham wavefunction type      ... RKS
Hartree-Fock exchange scaling    ...    0.000
Number of operators              ...    1
Number of atoms                  ...   11
Basis set dimensions             ...   97
Integral neglect threshold       ... 2.5e-11
Integral primitive cutoff        ... 2.5e-12
SHARK Integral package           ... ON

Nuc. rep. gradient       (SHARK) ... done (  0.0 sec)
HCore & Overlap gradient (SHARK) ... done (  0.0 sec)
RI-J gradient            (SHARK) ... done (  0.1 sec)
Exchange-correlation gradient    ... done
Dispersion correction            ... Starting D4


------------------- 
Dispersion Gradient 
------------------- 
   1  :   -0.000031439    0.000013269    0.000000010
   2  :    0.000007451    0.000010994   -0.000000001
   3  :   -0.000016492    0.000015232   -0.000000001
   4  :   -0.000015597    0.000003551   -0.000006035
   5  :   -0.000015617    0.000003527    0.000006072
   6  :    0.000024000   -0.000024250   -0.000000003
   7  :    0.000004327    0.000006386   -0.000004337
   8  :    0.000004334    0.000006397    0.000004350
   9  :    0.000020321   -0.000009660   -0.000000002
  10  :    0.000009082   -0.000013176    0.000006054
  11  :    0.000009083   -0.000013177   -0.000006060

  |G| =    0.000310288

done
gCP correction                   ... done

------------------
CARTESIAN GRADIENT
------------------

   1   C   :    0.017739162   -0.004437447   -0.000529788
   2   C   :   -0.011232256   -0.017074019   -0.000358066
   3   H   :   -0.001337663    0.013609843   -0.000042562
   4   H   :   -0.002772366   -0.006062779   -0.010832476
   5   H   :   -0.002981854   -0.006445838    0.011402581
   6   C   :   -0.011700719    0.014933410    0.000002603
   7   H   :    0.003822176    0.005639382   -0.012643799
   8   H   :    0.003954186    0.005834316    0.012995965
   9   H   :    0.013802901    0.003799331    0.000000687
  10   H   :   -0.004646822   -0.004900096    0.011169717
  11   H   :   -0.004647291   -0.004897009   -0.011164814

Difference to translation invariance:
           :   -0.0000005453   -0.0000009057    0.0000000476

Difference to rotation invariance:
           :    0.0000000040    0.0000000653   -0.0000643031

Norm of the cartesian gradient     ...    0.0511081272
RMS gradient                       ...    0.0088967830
MAX gradient                       ...    0.0177391615

-------
TIMINGS
-------

Total SCF gradient time            ...        1.173 sec

One electron gradient       ....       0.018 sec  (  1.6%)
RI-J Coulomb gradient       ....       0.101 sec  (  8.6%)
XC gradient                 ....       1.017 sec  ( 86.7%)

Maximum memory used throughout the entire SCFGRAD-calculation: 29.8 MB
------------------------------------------------------------------------------
                         ORCA GEOMETRY RELAXATION STEP
------------------------------------------------------------------------------

Reading the OPT-File                    .... done
Getting information on internals        .... done
Copying old internal coords+grads       .... done
Making the new internal coordinates     .... (new redundants).... done
Validating the new internal coordinates .... (new redundants).... done
Calculating the B-matrix                .... done
Calculating the G,G- and P matrices     .... done
Transforming gradient to internals      .... done
Projecting the internal gradient        .... done
Number of atoms                         ....  11
Number of internal coordinates          ....  46
Current Energy                          ....  -119.094357374 Eh
Current gradient norm                   ....     0.051108127 Eh/bohr
Maximum allowed component of the step   ....  0.300
Current trust radius                    ....  0.300
Evaluating the initial hessian          ....  (Almloef) done
Projecting the Hessian                  .... done
Forming the augmented Hessian           .... done
Diagonalizing the augmented Hessian     .... done
Last element of RFO vector              ....  0.991650182
Lowest eigenvalues of augmented Hessian:
 -0.005401235  0.013004235  0.013052885  0.077632245  0.089416295
Length of the computed step             ....  0.130042869
The final length of the internal step   ....  0.130042869
Converting the step to cartesian space:
 Initial RMS(Int)=    0.0191737750
Transforming coordinates:
 Iter   0:  RMS(Cart)=    0.0270601733 RMS(Int)=    0.0191903291
 Iter   1:  RMS(Cart)=    0.0001902990 RMS(Int)=    0.0001265344
 Iter   2:  RMS(Cart)=    0.0000043313 RMS(Int)=    0.0000033797
 Iter   3:  RMS(Cart)=    0.0000001126 RMS(Int)=    0.0000000790
 Iter   4:  RMS(Cart)=    0.0000000026 RMS(Int)=    0.0000000019
done
Storing new coordinates                 .... done

                                .--------------------.
          ----------------------|Geometry convergence|-------------------------
          Item                value                   Tolerance       Converged
          ---------------------------------------------------------------------
          RMS gradient        0.0062510608            0.0001000000      NO
          MAX gradient        0.0146413643            0.0003000000      NO
          RMS step            0.0191737750            0.0020000000      NO
          MAX step            0.0450525337            0.0040000000      NO
          ........................................................
          Max(Bonds)      0.0238      Max(Angles)    0.88
          Max(Dihed)        0.64      Max(Improp)    0.00
          ---------------------------------------------------------------------

The optimization has not yet converged - more geometry cycles are needed


    ---------------------------------------------------------------------------
                         Redundant Internal Coordinates
                            (Angstroem and degrees)

        Definition                    Value    dE/dq     Step     New-Value
    ----------------------------------------------------------------------------
     1. B(C   1,C   0)                1.5080 -0.010644  0.0137    1.5217   
     2. B(H   2,C   0)                1.1160  0.013221 -0.0210    1.0950   
     3. B(H   3,C   0)                1.1159  0.012595 -0.0200    1.0959   
     4. B(H   4,C   0)                1.1172  0.013310 -0.0213    1.0959   
     5. B(C   5,C   1)                1.5075 -0.010969  0.0141    1.5216   
     6. B(H   6,C   1)                1.1217  0.014217 -0.0231    1.0986   
     7. B(H   7,C   1)                1.1225  0.014641 -0.0238    1.0987   
     8. B(H   8,C   5)                1.1173  0.013892 -0.0222    1.0951   
     9. B(H   9,C   5)                1.1164  0.012918 -0.0206    1.0959   
    10. B(H  10,C   5)                1.1164  0.012912 -0.0206    1.0959   
    11. A(H   2,C   0,H   4)          108.48  0.002797   -0.46    108.02   
    12. A(C   1,C   0,H   2)          110.40 -0.004475    0.87    111.27   
    13. A(H   3,C   0,H   4)          108.21  0.001929   -0.49    107.72   
    14. A(H   2,C   0,H   3)          108.45  0.002739   -0.44    108.01   
    15. A(C   1,C   0,H   3)          110.62 -0.001326    0.23    110.85   
    16. A(C   1,C   0,H   4)          110.60 -0.001383    0.24    110.83   
    17. A(C   0,C   1,C   5)          111.77 -0.003514    0.80    112.57   
    18. A(H   6,C   1,H   7)          107.09  0.000587   -0.74    106.35   
    19. A(C   5,C   1,H   7)          109.46  0.000774   -0.03    109.43   
    20. A(C   0,C   1,H   7)          109.46  0.000772   -0.03    109.43   
    21. A(C   5,C   1,H   6)          109.47  0.000780   -0.04    109.44   
    22. A(C   0,C   1,H   6)          109.48  0.000779   -0.03    109.44   
    23. A(H   8,C   5,H   9)          108.40  0.002749   -0.44    107.96   
    24. A(C   1,C   5,H   9)          110.63 -0.001399    0.24    110.87   
    25. A(C   1,C   5,H   8)          110.38 -0.004463    0.88    111.26   
    26. A(H   9,C   5,H  10)          108.31  0.002046   -0.53    107.78   
    27. A(H   8,C   5,H  10)          108.40  0.002751   -0.44    107.96   
    28. A(C   1,C   5,H  10)          110.63 -0.001401    0.24    110.87   
    29. D(H   7,C   1,C   0,H   2)     58.56  0.000817   -0.47     58.09   
    30. D(H   6,C   1,C   0,H   2)    -58.53 -0.000789    0.46    -58.08   
    31. D(H   7,C   1,C   0,H   4)    -61.51  0.001125   -0.62    -62.13   
    32. D(H   7,C   1,C   0,H   3)    178.61  0.000473   -0.31    178.31   
    33. D(C   5,C   1,C   0,H   4)     59.93  0.000316   -0.15     59.78   
    34. D(H   6,C   1,C   0,H   4)   -178.61 -0.000481    0.31   -178.29   
    35. D(C   5,C   1,C   0,H   3)    -59.95 -0.000335    0.16    -59.79   
    36. D(C   5,C   1,C   0,H   2)    180.00  0.000009   -0.01    179.99   
    37. D(H   6,C   1,C   0,H   3)     61.52 -0.001133    0.62     62.14   
    38. D(H   9,C   5,C   1,H   6)    178.51  0.000434   -0.29    178.23   
    39. D(H   9,C   5,C   1,C   0)    -60.02 -0.000364    0.17    -59.84   
    40. D(H   8,C   5,C   1,H   7)    -58.56 -0.000805    0.47    -58.10   
    41. D(H   8,C   5,C   1,H   6)     58.53  0.000802   -0.46     58.07   
    42. D(H   9,C   5,C   1,H   7)     61.42 -0.001173    0.64     62.06   
    43. D(H   8,C   5,C   1,C   0)    180.00  0.000004   -0.00    180.00   
    44. D(H  10,C   5,C   1,H   7)   -178.54 -0.000438    0.29   -178.25   
    45. D(H  10,C   5,C   1,H   6)    -61.45  0.001169   -0.64    -62.09   
    46. D(H  10,C   5,C   1,C   0)     60.02  0.000371   -0.18     59.84   
    ----------------------------------------------------------------------------

         *************************************************************
         *                GEOMETRY OPTIMIZATION CYCLE   2            *
         *************************************************************
---------------------------------
CARTESIAN COORDINATES (ANGSTROEM)
---------------------------------
  C     -5.480035    1.916556   -0.071807
  C     -3.958346    1.906126   -0.071830
  H     -5.870209    2.939644   -0.071645
  H     -5.873615    1.403983   -0.956833
  H     -5.873285    1.403631    0.813214
  C     -3.384076    0.497065   -0.071927
  H     -3.588974    2.451518   -0.951060
  H     -3.589125    2.451146    0.807752
  H     -2.289093    0.514600   -0.071973
  H     -3.713086   -0.058677    0.813401
  H     -3.713156   -0.058593   -0.957291

----------------------------
CARTESIAN COORDINATES (A.U.)
----------------------------
  NO LB      ZA    FRAG     MASS         X           Y           Z
   0 C     6.0000    0    12.011  -10.355766    3.621766   -0.135696
   1 C     6.0000    0    12.011   -7.480191    3.602056   -0.135740
   2 H     1.0000    0     1.008  -11.093087    5.555122   -0.135390
   3 H     1.0000    0     1.008  -11.099524    2.653144   -1.808152
   4 H     1.0000    0     1.008  -11.098900    2.652478    1.536752
   5 C     6.0000    0    12.011   -6.394977    0.939317   -0.135921
   6 H     1.0000    0     1.008   -6.782177    4.632698   -1.797243
   7 H     1.0000    0     1.008   -6.782464    4.631994    1.526429
   8 H     1.0000    0     1.008   -4.325758    0.972453   -0.136009
   9 H     1.0000    0     1.008   -7.016715   -0.110884    1.537104
  10 H     1.0000    0     1.008   -7.016848   -0.110724   -1.809018

--------------------------------
INTERNAL COORDINATES (ANGSTROEM)
--------------------------------
 C      0   0   0     0.000000000000     0.00000000     0.00000000
 C      1   0   0     1.521724459320     0.00000000     0.00000000
 H      1   2   0     1.094962893332   111.26800151     0.00000000
 H      1   2   3     1.095858659723   110.85017115   120.21636632
 H      1   2   3     1.095901359117   110.83223857   239.78373772
 C      2   1   3     1.521590649823   112.56632738   179.99481398
 H      2   1   3     1.098605155245   109.44010999   301.92142527
 H      2   1   3     1.098651542244   109.42953051    58.08924580
 H      6   2   1     1.095123884809   111.25617743   179.99824419
 H      6   2   1     1.095856234802   110.87088634   300.15763272
 H      6   2   1     1.095864773547   110.87112041    59.83930983

---------------------------
INTERNAL COORDINATES (A.U.)
---------------------------
 C      0   0   0     0.000000000000     0.00000000     0.00000000
 C      1   0   0     2.875642479403     0.00000000     0.00000000
 H      1   2   0     2.069179995204   111.26800151     0.00000000
 H      1   2   3     2.070872748362   110.85017115   120.21636632
 H      1   2   3     2.070953438524   110.83223857   239.78373772
 C      2   1   3     2.875389616101   112.56632738   179.99481398
 H      2   1   3     2.076062872728   109.44010999   301.92142527
 H      2   1   3     2.076150531452   109.42953051    58.08924580
 H      6   2   1     2.069484225005   111.25617743   179.99824419
 H      6   2   1     2.070868165925   110.87088634   300.15763272
 H      6   2   1     2.070884301816   110.87112041    59.83930983

------------------------------------------------------------------------------
                   ___                                                        
                  /   \      - P O W E R E D   B Y -                         
                 /     \                                                     
                 |  |  |   _    _      __       _____    __    __             
                 |  |  |  | |  | |    /  \     |  _  \  |  |  /  |          
                  \  \/   | |  | |   /    \    | | | |  |  | /  /          
                 / \  \   | |__| |  /  /\  \   | |_| |  |  |/  /          
                |  |  |   |  __  | /  /__\  \  |    /   |      \           
                |  |  |   | |  | | |   __   |  |    \   |  |\   \          
                \     /   | |  | | |  |  |  |  | |\  \  |  | \   \       
                 \___/    |_|  |_| |__|  |__|  |_| \__\ |__|  \__/        
                                                                              
                      - O R C A' S   B I G   F R I E N D -                    
                                      &                                       
                       - I N T E G R A L  F E E D E R -                       
                                                                              
 v1 FN, 2020, v2 2021                                                         
------------------------------------------------------------------------------


Reading SHARK input file propane_initial.SHARKINP.tmp ... ok
----------------------
SHARK INTEGRAL PACKAGE
----------------------

Number of atoms                             ...     11
Number of basis functions                   ...     97
Number of shells                            ...     51
Maximum angular momentum                    ...      2
Integral batch strategy                     ... SHARK/LIBINT Hybrid
RI-J (if used) integral strategy            ... SPLIT-RIJ (Revised 2003 algorithm where possible)
Printlevel                                  ...      1
Contraction scheme used                     ... SEGMENTED contraction
Coulomb Range Separation                    ... NOT USED
Exchange Range Separation                   ... NOT USED
Finite Nucleus Model                        ... NOT USED
Auxiliary Coulomb fitting basis             ... AVAILABLE
   # of basis functions in Aux-J            ...    178
   # of shells in Aux-J                     ...     76
   Maximum angular momentum in Aux-J        ...      2
Auxiliary J/K fitting basis                 ... NOT available
Auxiliary Correlation fitting basis         ... NOT available
Auxiliary 'external' fitting basis          ... NOT available
Integral threshold                          ...     2.500000e-11
Primitive cut-off                           ...     2.500000e-12
Primitive pair pre-selection threshold      ...     2.500000e-12

Calculating pre-screening integrals         ... done (  0.0 sec) Dimension = 51
Organizing shell pair data                  ... done (  0.0 sec)
Shell pair information
Total number of shell pairs                 ...      1326
Shell pairs after pre-screening             ...      1313
Total number of primitive shell pairs       ...      4555
Primitive shell pairs kept                  ...      3705
          la=0 lb=0:    488 shell pairs
          la=1 lb=0:    523 shell pairs
          la=1 lb=1:    152 shell pairs
          la=2 lb=0:     93 shell pairs
          la=2 lb=1:     51 shell pairs
          la=2 lb=2:      6 shell pairs

Calculating one electron integrals          ... done (  0.0 sec)
Calculating RI/J V-Matrix + Cholesky decomp.... done (  0.0 sec)
Calculating Nuclear repulsion               ... done (  0.0 sec) ENN=     82.672564694876 Eh

SHARK setup successfully completed in   0.0 seconds

Maximum memory used throughout the entire GTOINT-calculation: 8.7 MB

Diagonalization of the overlap matrix:
Smallest eigenvalue                        ... 5.359e-04
Time for diagonalization                   ...    0.001 sec
Threshold for overlap eigenvalues          ... 1.000e-08
Number of eigenvalues below threshold      ... 0
Time for construction of square roots      ...    0.000 sec
Total time needed                          ...    0.001 sec

-------------------
DFT GRID GENERATION
-------------------

General Integration Accuracy     IntAcc      ... 4.388
Radial Grid Type                 RadialGrid  ... OptM3 with GC (2021)
Angular Grid (max. ang.)         AngularGrid ... 4 (Lebedev-302)
Angular grid pruning method      GridPruning ... 4 (adaptive)
Weight generation scheme         WeightScheme... Becke
Basis function cutoff            BFCut       ... 1.0000e-11
Integration weight cutoff        WCut        ... 1.0000e-14
Angular grids for H and He will be reduced by one unit
Partially contracted basis set               ... off
Rotationally invariant grid construction     ... off

Total number of grid points                  ...    44015
Total number of batches                      ...      695
Average number of points per batch           ...       63
Average number of grid points per atom       ...     4001
Time for grid setup =    0.171 sec

--------------
SCF ITERATIONS
--------------
ITER       Energy         Delta-E        Max-DP      RMS-DP      [F,P]     Damp
               ***  Starting incremental Fock matrix formation  ***
  0   -119.0949163354   0.000000000000 0.00178260  0.00013661  0.0071788 0.7000
                      *** Initiating the SOSCF procedure ***
                      *** Re-Reading the Fockian *** 
                      *** Removing any level shift *** 
ITER      Energy       Delta-E        Grad      Rot      Max-DP    RMS-DP
  1   -119.09514857  -0.0002322349  0.001144  0.001144  0.004890  0.000387
               *** Restarting incremental Fock matrix formation ***
  2   -119.09558280  -0.0004342322  0.001515  0.002559  0.002695  0.000146
  3   -119.09556498   0.0000178188  0.001969  0.001435  0.001363  0.000086
  4   -119.09562226  -0.0000572766  0.000120  0.000168  0.000250  0.000015
  5   -119.09562244  -0.0000001789  0.000096  0.000077  0.000098  0.000007
  6   -119.09562263  -0.0000001906  0.000024  0.000027  0.000054  0.000002
  7   -119.09562263  -0.0000000010  0.000020  0.000015  0.000024  0.000001
                 **** Energy Check signals convergence ****
              ***Rediagonalizing the Fockian in SOSCF/NRSCF***

               *****************************************************
               *                     SUCCESS                       *
               *           SCF CONVERGED AFTER   8 CYCLES          *
               *****************************************************

Total Energy       :         -119.09562264 Eh           -3240.75665 eV
  Last Energy change         ...   -8.9813e-09  Tolerance :   1.0000e-08
  Last MAX-Density change    ...    5.8781e-06  Tolerance :   1.0000e-07
             **** THE GBW FILE WAS UPDATED (propane_initial.gbw) ****
             **** DENSITY propane_initial.scfp WAS UPDATED ****
             **** ENERGY FILE WAS UPDATED (propane_initial.en.tmp) ****
             **** THE GBW FILE WAS UPDATED (propane_initial.gbw) ****
             **** DENSITY propane_initial.scfp WAS UPDATED ****
Total SCF time: 0 days 0 hours 0 min 3 sec 

Maximum memory used throughout the entire SCF-calculation: 20.7 MB


-------------------------------------------------------------------------------
                          DFT DISPERSION CORRECTION                            
                                                                               
                                 DFTD4 V2.5                                    
-------------------------------------------------------------------------------
Starting D4
-------------------------   ----------------
Dispersion correction           -0.001705301
-------------------------   ----------------

ERROR: Number of atoms in ORCA and otool_gcp are different: 
ORCA: 11  gCP: 0 
NOTIFICATION: Different basis set in ORCA and otool_gcp:
ORCA: 97  gCP: 17 
If you are NOT using ECPs, check your basis set inputs!
------------------   -----------------
gCP correction             0.000000000
------------------   -----------------

-------------------------   --------------------
FINAL SINGLE POINT ENERGY      -119.097327941355
-------------------------   --------------------

------------------------------------------------------------------------------
                         ORCA SCF GRADIENT CALCULATION
------------------------------------------------------------------------------

Gradient of the Kohn-Sham DFT energy:
Kohn-Sham wavefunction type      ... RKS
Hartree-Fock exchange scaling    ...    0.000
Number of operators              ...    1
Number of atoms                  ...   11
Basis set dimensions             ...   97
Integral neglect threshold       ... 2.5e-11
Integral primitive cutoff        ... 2.5e-12
SHARK Integral package           ... ON

Nuc. rep. gradient       (SHARK) ... done (  0.0 sec)
HCore & Overlap gradient (SHARK) ... done (  0.0 sec)
RI-J gradient            (SHARK) ... done (  0.1 sec)
Exchange-correlation gradient    ... done
Dispersion correction            ... Starting D4


------------------- 
Dispersion Gradient 
------------------- 
   1  :   -0.000031741    0.000013747    0.000000003
   2  :    0.000007531    0.000011119    0.000000002
   3  :   -0.000016331    0.000014531    0.000000001
   4  :   -0.000015595    0.000004141   -0.000005449
   5  :   -0.000015590    0.000004138    0.000005449
   6  :    0.000024547   -0.000024362   -0.000000001
   7  :    0.000004048    0.000005979   -0.000003905
   8  :    0.000004047    0.000005976    0.000003905
   9  :    0.000019560   -0.000009768   -0.000000002
  10  :    0.000009635   -0.000012946    0.000005451
  11  :    0.000009634   -0.000012945   -0.000005453

  |G| =    0.000307533

done
gCP correction                   ... done

------------------
CARTESIAN GRADIENT
------------------

   1   C   :    0.001482522   -0.000668213   -0.000022487
   2   C   :   -0.001527354   -0.002489138   -0.000032096
   3   H   :    0.000564156    0.001037800   -0.000009178
   4   H   :    0.000261711   -0.000279964   -0.000620988
   5   H   :    0.000276649   -0.000305284    0.000645957
   6   C   :   -0.001441316    0.001163768    0.000014808
   7   H   :    0.000087153    0.000155090   -0.001088320
   8   H   :    0.000092453    0.000155694    0.001116187
   9   H   :    0.000795418    0.000877974   -0.000000742
  10   H   :   -0.000294419    0.000176262    0.000668127
  11   H   :   -0.000297229    0.000175623   -0.000671268

Difference to translation invariance:
           :   -0.0000002555   -0.0000003904    0.0000000012

Difference to rotation invariance:
           :   -0.0000001467   -0.0000002968   -0.0000416873

Norm of the cartesian gradient     ...    0.0047067605
RMS gradient                       ...    0.0008193418
MAX gradient                       ...    0.0024891383

-------
TIMINGS
-------

Total SCF gradient time            ...        1.160 sec

One electron gradient       ....       0.019 sec  (  1.6%)
RI-J Coulomb gradient       ....       0.089 sec  (  7.6%)
XC gradient                 ....       1.017 sec  ( 87.6%)

Maximum memory used throughout the entire SCFGRAD-calculation: 29.8 MB
------------------------------------------------------------------------------
                         ORCA GEOMETRY RELAXATION STEP
------------------------------------------------------------------------------

Reading the OPT-File                    .... done
Getting information on internals        .... done
Copying old internal coords+grads       .... done
Making the new internal coordinates     .... (new redundants).... done
Validating the new internal coordinates .... (new redundants).... done
Calculating the B-matrix                .... done
Calculating the G,G- and P matrices     .... done
Transforming gradient to internals      .... done
Projecting the internal gradient        .... done
Number of atoms                         ....  11
Number of internal coordinates          ....  46
Current Energy                          ....  -119.097327941 Eh
Current gradient norm                   ....     0.004706760 Eh/bohr
Maximum allowed component of the step   ....  0.300
Current trust radius                    ....  0.300
Updating the Hessian (BFGS)             .... done
Forming the augmented Hessian           .... done
Diagonalizing the augmented Hessian     .... done
Last element of RFO vector              ....  0.999855422
Lowest eigenvalues of augmented Hessian:
 -0.000079352  0.013004235  0.013052885  0.077632203  0.089088267
Length of the computed step             ....  0.017006439
The final length of the internal step   ....  0.017006439
Converting the step to cartesian space:
 Initial RMS(Int)=    0.0025074626
Transforming coordinates:
 Iter   0:  RMS(Cart)=    0.0047112491 RMS(Int)=    0.0025083836
 Iter   1:  RMS(Cart)=    0.0000080008 RMS(Int)=    0.0000057036
 Iter   2:  RMS(Cart)=    0.0000000251 RMS(Int)=    0.0000000210
done
Storing new coordinates                 .... done

                                .--------------------.
          ----------------------|Geometry convergence|-------------------------
          Item                value                   Tolerance       Converged
          ---------------------------------------------------------------------
          Energy change      -0.0029705671            0.0000050000      NO
          RMS gradient        0.0007279077            0.0001000000      NO
          MAX gradient        0.0026856237            0.0003000000      NO
          RMS step            0.0025074626            0.0020000000      NO
          MAX step            0.0073793109            0.0040000000      NO
          ........................................................
          Max(Bonds)      0.0039      Max(Angles)    0.25
          Max(Dihed)        0.15      Max(Improp)    0.00
          ---------------------------------------------------------------------

The optimization has not yet converged - more geometry cycles are needed


    ---------------------------------------------------------------------------
                         Redundant Internal Coordinates
                            (Angstroem and degrees)

        Definition                    Value    dE/dq     Step     New-Value
    ----------------------------------------------------------------------------
     1. B(C   1,C   0)                1.5217 -0.002585  0.0038    1.5255   
     2. B(H   2,C   0)                1.0950  0.000768 -0.0015    1.0935   
     3. B(H   3,C   0)                1.0959  0.000539 -0.0011    1.0948   
     4. B(H   4,C   0)                1.0959  0.000566 -0.0011    1.0948   
     5. B(C   5,C   1)                1.5216 -0.002686  0.0039    1.5255   
     6. B(H   6,C   1)                1.0986  0.000977 -0.0019    1.0967   
     7. B(H   7,C   1)                1.0987  0.001002 -0.0019    1.0967   
     8. B(H   8,C   5)                1.0951  0.000810 -0.0016    1.0936   
     9. B(H   9,C   5)                1.0959  0.000538 -0.0011    1.0948   
    10. B(H  10,C   5)                1.0959  0.000542 -0.0011    1.0948   
    11. A(H   2,C   0,H   4)          108.02  0.000723   -0.13    107.89   
    12. A(C   1,C   0,H   2)          111.27 -0.001100    0.25    111.51   
    13. A(H   3,C   0,H   4)          107.72  0.000536   -0.15    107.57   
    14. A(H   2,C   0,H   3)          108.01  0.000701   -0.13    107.88   
    15. A(C   1,C   0,H   3)          110.85 -0.000357    0.07    110.92   
    16. A(C   1,C   0,H   4)          110.83 -0.000400    0.08    110.91   
    17. A(C   0,C   1,C   5)          112.57  0.000313   -0.01    112.56   
    18. A(H   6,C   1,H   7)          106.35  0.000327   -0.17    106.18   
    19. A(C   5,C   1,H   7)          109.43 -0.000156    0.04    109.47   
    20. A(C   0,C   1,H   7)          109.43 -0.000169    0.05    109.48   
    21. A(C   5,C   1,H   6)          109.44 -0.000147    0.04    109.48   
    22. A(C   0,C   1,H   6)          109.44 -0.000168    0.04    109.48   
    23. A(H   8,C   5,H   9)          107.96  0.000672   -0.11    107.85   
    24. A(C   1,C   5,H   9)          110.87 -0.000370    0.07    110.94   
    25. A(C   1,C   5,H   8)          111.26 -0.001085    0.25    111.51   
    26. A(H   9,C   5,H  10)          107.78  0.000586   -0.18    107.60   
    27. A(H   8,C   5,H  10)          107.96  0.000672   -0.11    107.85   
    28. A(C   1,C   5,H  10)          110.87 -0.000373    0.07    110.94   
    29. D(H   7,C   1,C   0,H   2)     58.09  0.000104   -0.08     58.01   
    30. D(H   6,C   1,C   0,H   2)    -58.08 -0.000099    0.07    -58.00   
    31. D(H   7,C   1,C   0,H   4)    -62.13  0.000192   -0.13    -62.25   
    32. D(H   7,C   1,C   0,H   3)    178.31  0.000015   -0.03    178.28   
    33. D(C   5,C   1,C   0,H   4)     59.78  0.000084   -0.04     59.73   
    34. D(H   6,C   1,C   0,H   4)   -178.29 -0.000011    0.03   -178.27   
    35. D(C   5,C   1,C   0,H   3)    -59.79 -0.000093    0.05    -59.74   
    36. D(C   5,C   1,C   0,H   2)    179.99 -0.000004    0.00    180.00   
    37. D(H   6,C   1,C   0,H   3)     62.14 -0.000188    0.12     62.26   
    38. D(H   9,C   5,C   1,H   6)    178.23 -0.000015   -0.01    178.22   
    39. D(H   9,C   5,C   1,C   0)    -59.84 -0.000121    0.07    -59.77   
    40. D(H   8,C   5,C   1,H   7)    -58.09 -0.000113    0.08    -58.01   
    41. D(H   8,C   5,C   1,H   6)     58.07  0.000109   -0.08     57.99   
    42. D(H   9,C   5,C   1,H   7)     62.06 -0.000236    0.15     62.22   
    43. D(H   8,C   5,C   1,C   0)    180.00  0.000002   -0.00    180.00   
    44. D(H  10,C   5,C   1,H   7)   -178.25  0.000011    0.01   -178.24   
    45. D(H  10,C   5,C   1,H   6)    -62.09  0.000233   -0.15    -62.23   
    46. D(H  10,C   5,C   1,C   0)     59.84  0.000127   -0.07     59.77   
    ----------------------------------------------------------------------------

         *************************************************************
         *                GEOMETRY OPTIMIZATION CYCLE   3            *
         *************************************************************
---------------------------------
CARTESIAN COORDINATES (ANGSTROEM)
---------------------------------
  C     -5.482320    1.918598   -0.071776
  C     -3.956863    1.908398   -0.071790
  H     -5.876496    2.938579   -0.071627
  H     -5.876667    1.405937   -0.955101
  H     -5.876475    1.405673    0.811461
  C     -3.381158    0.495705   -0.071932
  H     -3.587398    2.453890   -0.948565
  H     -3.587516    2.453563    0.805229
  H     -2.287662    0.508431   -0.071987
  H     -3.710181   -0.060949    0.811506
  H     -3.710264   -0.060826   -0.955418

----------------------------
CARTESIAN COORDINATES (A.U.)
----------------------------
  NO LB      ZA    FRAG     MASS         X           Y           Z
   0 C     6.0000    0    12.011  -10.360083    3.625625   -0.135638
   1 C     6.0000    0    12.011   -7.477388    3.606349   -0.135663
   2 H     1.0000    0     1.008  -11.104968    5.553110   -0.135356
   3 H     1.0000    0     1.008  -11.105291    2.656837   -1.804880
   4 H     1.0000    0     1.008  -11.104929    2.656338    1.533439
   5 C     6.0000    0    12.011   -6.389463    0.936747   -0.135931
   6 H     1.0000    0     1.008   -6.779200    4.637181   -1.792528
   7 H     1.0000    0     1.008   -6.779422    4.636562    1.521663
   8 H     1.0000    0     1.008   -4.323054    0.960795   -0.136035
   9 H     1.0000    0     1.008   -7.011226   -0.115177    1.533524
  10 H     1.0000    0     1.008   -7.011384   -0.114945   -1.805478

--------------------------------
INTERNAL COORDINATES (ANGSTROEM)
--------------------------------
 C      0   0   0     0.000000000000     0.00000000     0.00000000
 C      1   0   0     1.525490508067     0.00000000     0.00000000
 H      1   2   0     1.093497364171   111.51236004     0.00000000
 H      1   2   3     1.094802863219   110.91931894   120.26520029
 H      1   2   3     1.094787248866   110.90966486   239.73584571
 C      2   1   3     1.525495612948   112.55515687   179.99734687
 H      2   1   3     1.096723085876   109.48467913   301.99570411
 H      2   1   3     1.096715898948   109.47754866    58.01066870
 H      6   2   1     1.093570511424   111.50527745   179.99733348
 H      6   2   1     1.094797531130   110.93837029   300.22613853
 H      6   2   1     1.094799441105   110.93938259    59.76836256

---------------------------
INTERNAL COORDINATES (A.U.)
---------------------------
 C      0   0   0     0.000000000000     0.00000000     0.00000000
 C      1   0   0     2.882759280143     0.00000000     0.00000000
 H      1   2   0     2.066410546447   111.51236004     0.00000000
 H      1   2   3     2.068877582117   110.91931894   120.26520029
 H      1   2   3     2.068848075266   110.90966486   239.73584571
 C      2   1   3     2.882768926971   112.55515687   179.99734687
 H      2   1   3     2.072506277055   109.48467913   301.99570411
 H      2   1   3     2.072492695728   109.47754866    58.01066870
 H      6   2   1     2.066548774723   111.50527745   179.99733348
 H      6   2   1     2.068867505929   110.93837029   300.22613853
 H      6   2   1     2.068871115259   110.93938259    59.76836256

[...]
                |  |  |   |  __  | /  /__\  \  |    /   |      \           
                |  |  |   | |  | | |   __   |  |    \   |  |\   \          
                \     /   | |  | | |  |  |  |  | |\  \  |  | \   \       
                 \___/    |_|  |_| |__|  |__|  |_| \__\ |__|  \__/        
                                                                              
                      - O R C A' S   B I G   F R I E N D -                    
                                      &                                       
                       - I N T E G R A L  F E E D E R -                       
                                                                              
 v1 FN, 2020, v2 2021                                                         
------------------------------------------------------------------------------


Reading SHARK input file propane_charge.SHARKINP.tmp ... ok
----------------------
SHARK INTEGRAL PACKAGE
----------------------

Number of atoms                             ...     11
Number of basis functions                   ...     58
Number of shells                            ...     34
Maximum angular momentum                    ...      2
Integral batch strategy                     ... SHARK/LIBINT Hybrid
RI-J (if used) integral strategy            ... SPLIT-RIJ (Revised 2003 algorithm where possible)
Printlevel                                  ...      1
Contraction scheme used                     ... SEGMENTED contraction
Coulomb Range Separation                    ... NOT USED
Exchange Range Separation                   ... NOT USED
Finite Nucleus Model                        ... NOT USED
Auxiliary Coulomb fitting basis             ... NOT available
Auxiliary J/K fitting basis                 ... NOT available
Auxiliary Correlation fitting basis         ... NOT available
Auxiliary 'external' fitting basis          ... NOT available
Integral threshold                          ...     1.000000e-10
Primitive cut-off                           ...     1.000000e-11
Primitive pair pre-selection threshold      ...     1.000000e-11

Calculating pre-screening integrals         ... done (  0.0 sec) Dimension = 34
Organizing shell pair data                  ... done (  0.0 sec)
Shell pair information
Total number of shell pairs                 ...       595
Shell pairs after pre-screening             ...       594
Total number of primitive shell pairs       ...      3090
Primitive shell pairs kept                  ...      2443
          la=0 lb=0:    324 shell pairs
          la=1 lb=0:    150 shell pairs
          la=1 lb=1:     21 shell pairs
          la=2 lb=0:     75 shell pairs
          la=2 lb=1:     18 shell pairs
          la=2 lb=2:      6 shell pairs

Calculating one electron integrals          ... done (  0.0 sec)
Calculating Nuclear repulsion               ... done (  0.0 sec) ENN=     82.548764501548 Eh

SHARK setup successfully completed in   0.0 seconds

Maximum memory used throughout the entire GTOINT-calculation: 8.1 MB
-------------------------------------------------------------------------------
                                 ORCA SCF
-------------------------------------------------------------------------------

------------
SCF SETTINGS
------------
Hamiltonian:
 Ab initio Hamiltonian  Method          .... Hartree-Fock(GTOs)


General Settings:
 Integral files         IntName         .... propane_charge
 Hartree-Fock type      HFTyp           .... RHF
 Total Charge           Charge          ....    0
 Multiplicity           Mult            ....    1
 Number of Electrons    NEL             ....   26
 Basis Dimension        Dim             ....   58
 Nuclear Repulsion      ENuc            ....     82.5487645015 Eh

Convergence Acceleration:
 DIIS                   CNVDIIS         .... on
   Start iteration      DIISMaxIt       ....    12
   Startup error        DIISStart       ....  0.200000
   # of expansion vecs  DIISMaxEq       ....     5
   Bias factor          DIISBfac        ....   1.050
   Max. coefficient     DIISMaxC        ....  10.000
 Trust-Rad. Augm. Hess. CNVTRAH         .... auto
   Auto Start mean grad. ratio tolernc. ....  1.125000
   Auto Start start iteration           ....     1
   Auto Start num. interpolation iter.  ....    10
   Max. Number of Micro iterations      ....    16
   Max. Number of Macro iterations      .... Maxiter - #DIIS iter
   Number of Davidson start vectors     ....     2
   Converg. threshold I  (grad. norm)   ....   5.000e-05
   Converg. threshold II (energy diff.) ....   1.000e-06
   Grad. Scal. Fac. for Micro threshold ....   0.100
   Minimum threshold for Micro iter.    ....   0.010
   NR start threshold (gradient norm)   ....   0.001
   Initial trust radius                 ....   0.400
   Minimum AH scaling param. (alpha)    ....   1.000
   Maximum AH scaling param. (alpha)    .... 1000.000
   Orbital update algorithm             .... Taylor
   White noise on init. David. guess    .... on
   Maximum white noise                  ....   0.010
   Quad. conv. algorithm                .... NR
 SOSCF                  CNVSOSCF        .... on
   Start iteration      SOSCFMaxIt      ....   150
   Startup grad/error   SOSCFStart      ....  0.003300
 Level Shifting         CNVShift        .... on
   Level shift para.    LevelShift      ....    0.2500
   Turn off err/grad.   ShiftErr        ....    0.0010
 Zerner damping         CNVZerner       .... off
 Static damping         CNVDamp         .... on
   Fraction old density DampFac         ....    0.7000
   Max. Damping (<1)    DampMax         ....    0.9800
   Min. Damping (>=0)   DampMin         ....    0.0000
   Turn off err/grad.   DampErr         ....    0.1000
 Fernandez-Rico         CNVRico         .... off

SCF Procedure:
 Maximum # iterations   MaxIter         ....   125
 SCF integral mode      SCFMode         .... Direct
   Integral package                     .... SHARK and LIBINT hybrid scheme
 Reset frequency        DirectResetFreq ....    20
 Integral Threshold     Thresh          ....  1.000e-10 Eh
 Primitive CutOff       TCut            ....  1.000e-11 Eh

Convergence Tolerance:
 Convergence Check Mode ConvCheckMode   .... Total+1el-Energy
 Convergence forced     ConvForced      .... 0
 Energy Change          TolE            ....  1.000e-06 Eh
 1-El. energy change                    ....  1.000e-03 Eh
 Orbital Gradient       TolG            ....  5.000e-05
 Orbital Rotation angle TolX            ....  5.000e-05
 DIIS Error             TolErr          ....  1.000e-06


Diagonalization of the overlap matrix:
Smallest eigenvalue                        ... 6.877e-03
Time for diagonalization                   ...    0.000 sec
Threshold for overlap eigenvalues          ... 1.000e-08
Number of eigenvalues below threshold      ... 0
Time for construction of square roots      ...    0.000 sec
Total time needed                          ...    0.001 sec

---------------------
INITIAL GUESS: MOREAD
---------------------
Guess MOs are being read from file: propane_nbo.gbw
Input Geometry matches current geometry (good)
Atom 0: N(Shells)= 6 and 11 - projection required
Input basis set needs projection
NBasis(read)= 141
NBasis(calc)= 58
Basis set overlap was calculated
Using GuessMode=FMatrix for the initial guess
C*T matrix was formed
Effective Fockian was calculated
Effective Fockian was diagonalized
Initial density was built
                      ------------------
                      INITIAL GUESS DONE (   0.0 sec)
                      ------------------
Hirshfeld charges requested but no grid available - making one
-------------------
DFT GRID GENERATION
-------------------

General Integration Accuracy     IntAcc      ... 4.388
Radial Grid Type                 RadialGrid  ... OptM3 with GC (2021)
Angular Grid (max. ang.)         AngularGrid ... 4 (Lebedev-302)
Angular grid pruning method      GridPruning ... 4 (adaptive)
Weight generation scheme         WeightScheme... Becke
Basis function cutoff            BFCut       ... 1.0000e-10
Integration weight cutoff        WCut        ... 1.0000e-14
Angular grids for H and He will be reduced by one unit
Partially contracted basis set               ... off
Rotationally invariant grid construction     ... off

Total number of grid points                  ...    44017
Total number of batches                      ...      696
Average number of points per batch           ...       63
Average number of grid points per atom       ...     4002
Time for grid setup =    0.153 sec

--------------
SCF ITERATIONS
--------------
ITER       Energy         Delta-E        Max-DP      RMS-DP      [F,P]     Damp
               ***  Starting incremental Fock matrix formation  ***
  0   -118.2505313790   0.000000000000 0.00950887  0.00101301  0.0500561 0.7000
  1   -118.2540327707  -0.003501391691 0.00799812  0.00085011  0.0368042 0.7000
                               ***Turning on DIIS***
  2   -118.2565172656  -0.002484494903 0.02097616  0.00214502  0.0268866 0.0000
  3   -118.2727905528  -0.016273287252 0.00495519  0.00051495  0.0062682 0.0000
                      *** Initiating the SOSCF procedure ***
                           *** Shutting down DIIS ***
                      *** Re-Reading the Fockian *** 
                      *** Removing any level shift *** 
ITER      Energy       Delta-E        Grad      Rot      Max-DP    RMS-DP
  4   -118.27538433  -0.0025937806  0.001159  0.001159  0.002007  0.000162
               *** Restarting incremental Fock matrix formation ***
  5   -118.26273046   0.0126538779  0.000247  0.000288  0.000660  0.000058
  6   -118.26273185  -0.0000013960  0.000089  0.000161  0.000302  0.000025
                 **** Energy Check signals convergence ****
              ***Rediagonalizing the Fockian in SOSCF/NRSCF***

               *****************************************************
               *                     SUCCESS                       *
               *           SCF CONVERGED AFTER   7 CYCLES          *
               *****************************************************


----------------
TOTAL SCF ENERGY
----------------

Total Energy       :         -118.26273198 Eh           -3218.09254 eV

Components:
Nuclear Repulsion  :           82.54876450 Eh            2246.26608 eV
Electronic Energy  :         -200.81149648 Eh           -5464.35862 eV
One Electron Energy:         -321.37928742 Eh           -8745.17501 eV
Two Electron Energy:          120.56779094 Eh            3280.81638 eV

Virial components:
Potential Energy   :         -236.58791867 Eh           -6437.88456 eV
Kinetic Energy     :          118.32518669 Eh            3219.79202 eV
Virial Ratio       :            1.99947218


---------------
SCF CONVERGENCE
---------------

  Last Energy change         ...   -1.2687e-07  Tolerance :   1.0000e-06
  Last MAX-Density change    ...    3.4631e-05  Tolerance :   1.0000e-05
  Last RMS-Density change    ...    3.6075e-06  Tolerance :   1.0000e-06
  Last Orbital Gradient      ...    2.4179e-05  Tolerance :   5.0000e-05
  Last Orbital Rotation      ...    2.7371e-05  Tolerance :   5.0000e-05

             **** THE GBW FILE WAS UPDATED (propane_charge.gbw) ****
             **** DENSITY propane_charge.scfp WAS UPDATED ****
             **** ENERGY FILE WAS UPDATED (propane_charge.en.tmp) ****
             **** THE GBW FILE WAS UPDATED (propane_charge.gbw) ****
             **** DENSITY propane_charge.scfp WAS UPDATED ****
----------------
ORBITAL ENERGIES
----------------

  NO   OCC          E(Eh)            E(eV) 
   0   2.0000     -11.214999      -305.1756 
   1   2.0000     -11.206715      -304.9502 
   2   2.0000     -11.206676      -304.9491 
   3   2.0000      -1.052154       -28.6306 
   4   2.0000      -0.924733       -25.1633 
   5   2.0000      -0.799500       -21.7555 
   6   2.0000      -0.622918       -16.9505 
   7   2.0000      -0.596927       -16.2432 
   8   2.0000      -0.549572       -14.9546 
   9   2.0000      -0.530296       -14.4301 
  10   2.0000      -0.475289       -12.9333 
  11   2.0000      -0.474901       -12.9227 
  12   2.0000      -0.466735       -12.7005 
  13   0.0000       0.233174         6.3450 
  14   0.0000       0.294997         8.0273 
  15   0.0000       0.296898         8.0790 
  16   0.0000       0.297035         8.0827 
  17   0.0000       0.317062         8.6277 
  18   0.0000       0.341664         9.2972 
  19   0.0000       0.349246         9.5035 
  20   0.0000       0.353470         9.6184 
  21   0.0000       0.393276        10.7016 
  22   0.0000       0.442723        12.0471 
  23   0.0000       0.713733        19.4217 
  24   0.0000       0.714448        19.4411 
  25   0.0000       0.747049        20.3282 
  26   0.0000       0.763183        20.7673 
  27   0.0000       0.786706        21.4074 
  28   0.0000       0.938724        25.5440 
  29   0.0000       0.977955        26.6115 
  30   0.0000       0.978445        26.6248 
  31   0.0000       1.016806        27.6687 
  32   0.0000       1.144074        31.1318 
  33   0.0000       1.163047        31.6481 
  34   0.0000       1.173797        31.9406 
  35   0.0000       1.187393        32.3106 
  36   0.0000       1.206041        32.8180 
  37   0.0000       1.228235        33.4220 
  38   0.0000       1.250665        34.0323 
  39   0.0000       1.263316        34.3766 
  40   0.0000       1.266049        34.4509 
  41   0.0000       1.645828        44.7853 
  42   0.0000       1.737220        47.2722 
  43   0.0000       1.755490        47.7693 
  44   0.0000       1.819711        49.5168 
  45   0.0000       2.037146        55.4336 
  46   0.0000       2.205683        60.0197 
  47   0.0000       2.244946        61.0881 
  48   0.0000       2.291027        62.3420 
  49   0.0000       2.354421        64.0670 
  50   0.0000       2.417742        65.7901 
  51   0.0000       2.574148        70.0461 
  52   0.0000       2.598727        70.7150 
  53   0.0000       2.672709        72.7281 
  54   0.0000       2.731589        74.3303 
  55   0.0000       2.763171        75.1897 
  56   0.0000       2.926040        79.6216 
  57   0.0000       3.030147        82.4545 

------------------
HIRSHFELD ANALYSIS
------------------

Total integrated alpha density =     12.999978367
Total integrated beta density  =     12.999978367

  ATOM     CHARGE      SPIN    
   0 C   -0.052485    0.000000
   1 C   -0.017281    0.000000
   2 H    0.017355    0.000000
   3 H    0.015346    0.000000
   4 H    0.015346    0.000000
   5 C   -0.052488    0.000000
   6 H    0.013128    0.000000
   7 H    0.013128    0.000000
   8 H    0.017320    0.000000
   9 H    0.015338    0.000000
  10 H    0.015338    0.000000

  TOTAL   0.000043    0.000000

-------
TIMINGS
-------

Total SCF time: 0 days 0 hours 0 min 0 sec 

Total time                  ....       0.827 sec
Sum of individual times     ....       0.771 sec  ( 93.1%)

Fock matrix formation       ....       0.568 sec  ( 68.6%)
Diagonalization             ....       0.002 sec  (  0.2%)
Density matrix formation    ....       0.000 sec  (  0.0%)
Population analysis         ....       0.044 sec  (  5.3%)
Initial guess               ....       0.003 sec  (  0.3%)
Orbital Transformation      ....       0.000 sec  (  0.0%)
Orbital Orthonormalization  ....       0.000 sec  (  0.0%)
DIIS solution               ....       0.001 sec  (  0.1%)
SOSCF solution              ....       0.000 sec  (  0.1%)

Maximum memory used throughout the entire SCF-calculation: 227.2 MB

-------------------------   --------------------
FINAL SINGLE POINT ENERGY      -118.262731978395
-------------------------   --------------------


                            ***************************************
                            *     ORCA property calculations      *
                            ***************************************

                                    ---------------------
                                    Active property flags
                                    ---------------------
   (+) Dipole Moment


------------------------------------------------------------------------------
                       ORCA ELECTRIC PROPERTIES CALCULATION
------------------------------------------------------------------------------

Dipole Moment Calculation                       ... on
Quadrupole Moment Calculation                   ... off
Polarizability Calculation                      ... off
GBWName                                         ... propane_charge.gbw
Electron density                                ... propane_charge.scfp
The origin for moment calculation is the CENTER OF MASS  = (-8.089561,  2.702132 -0.135710)

-------------
DIPOLE MOMENT
-------------
                                X             Y             Z
Electronic contribution:      0.26416       0.39163       0.00004
Nuclear contribution   :     -0.24997      -0.37071      -0.00004
                        -----------------------------------------
Total Dipole Moment    :      0.01419       0.02092       0.00000
                        -----------------------------------------
Magnitude (a.u.)       :      0.02528
Magnitude (Debye)      :      0.06426



--------------------
Rotational spectrum 
--------------------
 
Rotational constants in cm-1:     0.985616     0.281042     0.248876 
Rotational constants in MHz : 29548.010991  8425.416736  7461.121935 

 Dipole components along the rotational axes: 
x,y,z [a.u.] :    -0.000021     0.025282     0.000000 
x,y,z [Debye]:    -0.000054     0.064262     0.000001 

 
------------------------------------------------------------------------------
                      ORCA CHELPG CHARGES GENERATION
------------------------------------------------------------------------------

GBW file                           ... propane_charge.gbw
Density                            ... propane_charge.scfp

Reading the GBW file               ... done
Reading the density                ... done

Grid spacing                       ...     0.300000
Point Cut-Off                      ...     2.800000
Van-der-Waals Radii                ...        COSMO
Total charge                       ...            0


Number of points X direction       ...           30
Number of points Y direction       ...           28
Number of points Z direction       ...           24
Maximum number of possible points  ...        20160
Final number of points             ...         8531


CHELPG Charges            
--------------------------------
  0   C   :      -0.344075
  1   C   :       0.337379
  2   H   :       0.066509
  3   H   :       0.079756
  4   H   :       0.079994
  5   C   :      -0.346259
  6   H   :      -0.050014
  7   H   :      -0.051300
  8   H   :       0.066751
  9   H   :       0.080789
 10   H   :       0.080469
--------------------------------
Total charge:     0.000000
--------------------------------

CHELPG charges calculated...

Timings for individual parts in CHELPG calculation:
Grid generation                 ...        0.001 sec (=   0.000 min)
Potential calculation           ...        0.273 sec (=   0.005 min)
Fit to the potential            ...        0.001 sec (=   0.000 min)
------------------------------------------------------------------------------


Timings for individual modules:

Sum of individual times         ...        1.214 sec (=   0.020 min)
GTO integral calculation        ...        0.056 sec (=   0.001 min)   4.6 %
SCF iterations                  ...        0.855 sec (=   0.014 min)  70.4 %
CHELPG charge generation        ...        0.303 sec (=   0.005 min)  25.0 %
================================================================================

----- Orbital basis set information -----
Your calculation utilizes the basis: def2-SVP
   F. Weigend and R. Ahlrichs, Phys. Chem. Chem. Phys. 7, 3297 (2005).

                             ****ORCA TERMINATED NORMALLY****
TOTAL RUN TIME: 0 days 0 hours 3 minutes 21 seconds 456 msec
