
                                 *****************
                                 * O   R   C   A *
                                 *****************

                                            #,                                       
                                            ###                                      
                                            ####                                     
                                            #####                                    
                                            ######                                   
                                           ########,                                 
                                     ,,################,,,,,                         
                               ,,#################################,,                 
                          ,,##########################################,,             
                       ,#########################################, ''#####,          
                    ,#############################################,,   '####,        
                  ,##################################################,,,,####,       
                ,###########''''           ''''###############################       
              ,#####''   ,,,,##########,,,,          '''####'''          '####       
            ,##' ,,,,###########################,,,                        '##       
           ' ,,###''''                  '''############,,,                           
         ,,##''                                '''############,,,,        ,,,,,,###''
      ,#''                                            '''#######################'''  
     '                                                          ''''####''''         
             ,#######,   #######,   ,#######,      ##                                
            ,#'     '#,  ##    ##  ,#'     '#,    #''#        ######   ,####,        
            ##       ##  ##   ,#'  ##            #'  '#       #        #'  '#        
            ##       ##  #######   ##           ,######,      #####,   #    #        
            '#,     ,#'  ##    ##  '#,     ,#' ,#      #,         ##   #,  ,#        
             '#######'   ##     ##  '#######'  #'      '#     #####' # '####'        



                  #######################################################
                  #                        -***-                        #
                  #          Department of theory and spectroscopy      #
                  #    Directorship and core code : Frank Neese         #
                  #        Max Planck Institute fuer Kohlenforschung    #
                  #                Kaiser Wilhelm Platz 1               #
                  #                 D-45470 Muelheim/Ruhr               #
                  #                      Germany                        #
                  #                                                     #
                  #                  All rights reserved                #
                  #                        -***-                        #
                  #######################################################


                         Program Version 5.0.1 -  RELEASE  -


 With contributions from (in alphabetic order):
   Daniel Aravena         : Magnetic Suceptibility
   Michael Atanasov       : Ab Initio Ligand Field Theory (pilot matlab implementation)
   Alexander A. Auer      : GIAO ZORA, VPT2 properties, NMR spectrum
   Ute Becker             : Parallelization
   Giovanni Bistoni       : ED, misc. LED, open-shell LED, HFLD
   Martin Brehm           : Molecular dynamics
   Dmytro Bykov           : SCF Hessian
   Vijay G. Chilkuri      : MRCI spin determinant printing, contributions to CSF-ICE
   Dipayan Datta          : RHF DLPNO-CCSD density
   Achintya Kumar Dutta   : EOM-CC, STEOM-CC
   Dmitry Ganyushin       : Spin-Orbit,Spin-Spin,Magnetic field MRCI
   Miquel Garcia          : C-PCM and meta-GGA Hessian, CC/C-PCM, Gaussian charge scheme
   Yang Guo               : DLPNO-NEVPT2, F12-NEVPT2, CIM, IAO-localization
   Andreas Hansen         : Spin unrestricted coupled pair/coupled cluster methods
   Benjamin Helmich-Paris : MC-RPA, TRAH-SCF, COSX integrals
   Lee Huntington         : MR-EOM, pCC
   Robert Izsak           : Overlap fitted RIJCOSX, COSX-SCS-MP3, EOM
   Marcus Kettner         : VPT2
   Christian Kollmar      : KDIIS, OOCD, Brueckner-CCSD(T), CCSD density, CASPT2, CASPT2-K
   Simone Kossmann        : Meta GGA functionals, TD-DFT gradient, OOMP2, MP2 Hessian
   Martin Krupicka        : Initial AUTO-CI
   Lucas Lang             : DCDCAS
   Marvin Lechner         : AUTO-CI (C++ implementation), FIC-MRCC
   Dagmar Lenk            : GEPOL surface, SMD
   Dimitrios Liakos       : Extrapolation schemes; Compound Job, initial MDCI parallelization
   Dimitrios Manganas     : Further ROCIS development; embedding schemes
   Dimitrios Pantazis     : SARC Basis sets
   Anastasios Papadopoulos: AUTO-CI, single reference methods and gradients
   Taras Petrenko         : DFT Hessian,TD-DFT gradient, ASA, ECA, R-Raman, ABS, FL, XAS/XES, NRVS
   Peter Pinski           : DLPNO-MP2, DLPNO-MP2 Gradient
   Christoph Reimann      : Effective Core Potentials
   Marius Retegan         : Local ZFS, SOC
   Christoph Riplinger    : Optimizer, TS searches, QM/MM, DLPNO-CCSD(T), (RO)-DLPNO pert. Triples
   Tobias Risthaus        : Range-separated hybrids, TD-DFT gradient, RPA, STAB
   Michael Roemelt        : Original ROCIS implementation
   Masaaki Saitow         : Open-shell DLPNO-CCSD energy and density
   Barbara Sandhoefer     : DKH picture change effects
   Avijit Sen             : IP-ROCIS
   Kantharuban Sivalingam : CASSCF convergence, NEVPT2, FIC-MRCI
   Bernardo de Souza      : ESD, SOC TD-DFT
   Georgi Stoychev        : AutoAux, RI-MP2 NMR, DLPNO-MP2 response
   Willem Van den Heuvel  : Paramagnetic NMR
   Boris Wezisla          : Elementary symmetry handling
   Frank Wennmohs         : Technical directorship


 We gratefully acknowledge several colleagues who have allowed us to
 interface, adapt or use parts of their codes:
   Stefan Grimme, W. Hujo, H. Kruse, P. Pracht,  : VdW corrections, initial TS optimization,
                  C. Bannwarth, S. Ehlert          DFT functionals, gCP, sTDA/sTD-DF
   Ed Valeev, F. Pavosevic, A. Kumar             : LibInt (2-el integral package), F12 methods
   Garnet Chan, S. Sharma, J. Yang, R. Olivares  : DMRG
   Ulf Ekstrom                                   : XCFun DFT Library
   Mihaly Kallay                                 : mrcc  (arbitrary order and MRCC methods)
   Jiri Pittner, Ondrej Demel                    : Mk-CCSD
   Frank Weinhold                                : gennbo (NPA and NBO analysis)
   Christopher J. Cramer and Donald G. Truhlar   : smd solvation model
   Lars Goerigk                                  : TD-DFT with DH, B97 family of functionals
   V. Asgeirsson, H. Jonsson                     : NEB implementation
   FAccTs GmbH                                   : IRC, NEB, NEB-TS, DLPNO-Multilevel, CI-OPT
                                                   MM, QMMM, 2- and 3-layer-ONIOM, Crystal-QMMM,
                                                   LR-CPCM, SF, NACMEs, symmetry and pop. for TD-DFT,
                                                   nearIR, NL-DFT gradient (VV10), updates on ESD,
                                                   ML-optimized integration grids
   S Lehtola, MJT Oliveira, MAL Marques          : LibXC Library
   Liviu Ungur et al                             : ANISO software


 Your calculation uses the libint2 library for the computation of 2-el integrals
 For citations please refer to: http://libint.valeyev.net

 Your ORCA version has been built with support for libXC version: 5.1.0
 For citations please refer to: https://tddft.org/programs/libxc/

 This ORCA versions uses:
   CBLAS   interface :  Fast vector & matrix operations
   LAPACKE interface :  Fast linear algebra routines
   SCALAPACK package :  Parallel linear algebra routines
   Shared memory     :  Shared parallel matrices
   BLAS/LAPACK       :  OpenBLAS 0.3.15  USE64BITINT DYNAMIC_ARCH NO_AFFINITY SkylakeX SINGLE_THREADED
        Core in use  :  SkylakeX
   Copyright (c) 2011-2014, The OpenBLAS Project




################################################################################


                                COMPOUND JOB MainJOB 
Basename: propane_hessian_Compound_0

################################################################################

================================================================================
                                       INPUT FILE
================================================================================
NAME = propane_hessian_Compound_0.inp
|  1> * xyz   0   1
|  2>    C    -5.467000     1.905000    -0.072000
|  3>    C    -3.959000     1.905000    -0.072000
|  4>    H    -5.856000     2.951000    -0.072000
|  5>    H    -5.860000     1.382000    -0.976000
|  6>    H    -5.860000     1.381000     0.833000
|  7>    C    -3.400000     0.505000    -0.072000
|  8>    H    -3.585000     2.457000    -0.974000
|  9>    H    -3.585000     2.457000     0.831000
| 10>    H    -2.283000     0.532000    -0.072000
| 11>    H    -3.739000    -0.054000     0.833000
| 12>    H    -3.739000    -0.054000    -0.977000
| 13>   *
| 14>  
| 15>  %pal nprocs  12 end
| 16>  %maxcore  62
| 17>  
| 18> 
| 19>                          ****END OF INPUT****
================================================================================
================================================================================

----- Orbital basis set information -----
Your calculation utilizes the basis: def2-SVP
   F. Weigend and R. Ahlrichs, Phys. Chem. Chem. Phys. 7, 3297 (2005).



################################################################################


                                COMPOUND JOB  1 
Basename: propane_hessian_Compound_1
NOTE: please remember that MaxCore and PAL settings will be ignored.

################################################################################

================================================================================
                                       INPUT FILE
================================================================================
NAME = propane_hessian_Compound_1.inp
|  1>   ! opt r2SCAN-3c nopop
|  2>   %base "propane_initial"
|  3> 
|  4>                          ****END OF INPUT****
================================================================================
Your calculation utilizes the geometrical counterpoise correction gCP
Please cite in your paper:
H.Kruse, S. Grimme J.Chem.Phys., 136, (2012), 154101 
   

Your calculation utilizes the atom-pairwise dispersion correction
based on tight binding partial charges (D4)
Cite in your paper:
E.Caldeweyher, C.Bannwarth, S.Grimme, J.Chem.Phys., (2017), 147, 034112.
E.Caldeweyher, S.Ehlert, A.Hansen, H.Neugebauer, S.Grimme, J.Chem.Phys., (2018), in progress.
   

================================================================================

----- Orbital basis set information -----
Your calculation utilizes the basis: def2-mTZVPP
   Stefan Grimme, Andreas Hansen, Sebastian Ehlert, and Jan-Michael Mewes 
   J. Chem. Phys. 154, 000000 (2021). DOI: 10.1063/5.0040021

----- AuxJ basis set information -----
Your calculation utilizes the basis: def2-mTZVPP/J
   Stefan Grimme, Andreas Hansen, Sebastian Ehlert, and Jan-Michael Mewes 
   J. Chem. Phys. 154, 000000 (2021). DOI: 10.1063/5.0040021

================================================================================
                                        WARNINGS
                       Please study these warnings very carefully!
================================================================================

Using LibXC functional ID 497 : Re-regularized SCAN exchange by Furness et al
[ 1]  J. W. Furness, A. D. Kaplan, J. Ning, J. P. Perdew, and J. Sun, J. Phys. Chem. Lett. 11, 8208 (2020)
[ 2]  J. W. Furness, A. D. Kaplan, J. Ning, J. P. Perdew, and J. Sun, J. Phys. Chem. Lett. 11, 9248 (2020)
Using LibXC functional ID 498 : Re-regularized SCAN correlation by Furness et al
[ 1]  J. W. Furness, A. D. Kaplan, J. Ning, J. P. Perdew, and J. Sun, J. Phys. Chem. Lett. 11, 8208 (2020)
[ 2]  J. W. Furness, A. D. Kaplan, J. Ning, J. P. Perdew, and J. Sun, J. Phys. Chem. Lett. 11, 9248 (2020)
Using LibXC functional ID 497 : Re-regularized SCAN exchange by Furness et al
[ 1]  J. W. Furness, A. D. Kaplan, J. Ning, J. P. Perdew, and J. Sun, J. Phys. Chem. Lett. 11, 8208 (2020)
[ 2]  J. W. Furness, A. D. Kaplan, J. Ning, J. P. Perdew, and J. Sun, J. Phys. Chem. Lett. 11, 9248 (2020)
Using LibXC functional ID 498 : Re-regularized SCAN correlation by Furness et al
[ 1]  J. W. Furness, A. D. Kaplan, J. Ning, J. P. Perdew, and J. Sun, J. Phys. Chem. Lett. 11, 8208 (2020)
[ 2]  J. W. Furness, A. D. Kaplan, J. Ning, J. P. Perdew, and J. Sun, J. Phys. Chem. Lett. 11, 9248 (2020)

WARNING: Geometry Optimization
  ===> : Switching off AutoStart
         For restart on a previous wavefunction, please use MOREAD

INFO   : the flag for use of the SHARK integral package has been found!


                       *****************************
                       * Geometry Optimization Run *
                       *****************************

Geometry optimization settings:
Update method            Update   .... BFGS
Choice of coordinates    CoordSys .... Z-matrix Internals
Initial Hessian          InHess   .... Almoef's Model

Convergence Tolerances:
Energy Change            TolE     ....  5.0000e-06 Eh
Max. Gradient            TolMAXG  ....  3.0000e-04 Eh/bohr
RMS Gradient             TolRMSG  ....  1.0000e-04 Eh/bohr
Max. Displacement        TolMAXD  ....  4.0000e-03 bohr
RMS Displacement         TolRMSD  ....  2.0000e-03 bohr
Strict Convergence                ....  False
------------------------------------------------------------------------------
                        ORCA OPTIMIZATION COORDINATE SETUP
------------------------------------------------------------------------------

The optimization will be done in new redundant internal coordinates
Making redundant internal coordinates   ...  (new redundants) done
Evaluating the initial hessian          ...  (Almloef) done
Evaluating the coordinates              ...  done
Calculating the B-matrix                .... done
Calculating the G-matrix                .... done
Diagonalizing the G-matrix              .... done
The first mode is                       ....   19
The number of degrees of freedom        ....   27

    -----------------------------------------------------------------
                    Redundant Internal Coordinates


    -----------------------------------------------------------------
         Definition                    Initial Value    Approx d2E/dq
    -----------------------------------------------------------------
      1. B(C   1,C   0)                  1.5080         0.405021   
      2. B(H   2,C   0)                  1.1160         0.327307   
      3. B(H   3,C   0)                  1.1159         0.327438   
      4. B(H   4,C   0)                  1.1172         0.325903   
      5. B(C   5,C   1)                  1.5075         0.405802   
      6. B(H   6,C   1)                  1.1217         0.320529   
      7. B(H   7,C   1)                  1.1225         0.319583   
      8. B(H   8,C   5)                  1.1173         0.325706   
      9. B(H   9,C   5)                  1.1164         0.326774   
     10. B(H  10,C   5)                  1.1164         0.326774   
     11. A(H   2,C   0,H   4)          108.4821         0.282113   
     12. A(C   1,C   0,H   2)          110.3998         0.323539   
     13. A(H   3,C   0,H   4)          108.2124         0.282131   
     14. A(H   2,C   0,H   3)          108.4533         0.282319   
     15. A(C   1,C   0,H   3)          110.6212         0.323560   
     16. A(C   1,C   0,H   4)          110.5965         0.323311   
     17. A(C   0,C   1,C   5)          111.7661         0.373699   
     18. A(H   6,C   1,H   7)          107.0859         0.280351   
     19. A(C   5,C   1,H   7)          109.4601         0.322377   
     20. A(C   0,C   1,H   7)          109.4623         0.322275   
     21. A(C   5,C   1,H   6)          109.4746         0.322533   
     22. A(C   0,C   1,H   6)          109.4769         0.322431   
     23. A(H   8,C   5,H   9)          108.4004         0.282016   
     24. A(C   1,C   5,H   9)          110.6346         0.323555   
     25. A(C   1,C   5,H   8)          110.3814         0.323381   
     26. A(H   9,C   5,H  10)          108.3123         0.282159   
     27. A(H   8,C   5,H  10)          108.4004         0.282016   
     28. A(C   1,C   5,H  10)          110.6346         0.323555   
     29. D(H   7,C   1,C   0,H   2)     58.5627         0.013004   
     30. D(H   6,C   1,C   0,H   2)    -58.5345         0.013004   
     31. D(H   7,C   1,C   0,H   4)    -61.5083         0.013004   
     32. D(H   7,C   1,C   0,H   3)    178.6138         0.013004   
     33. D(C   5,C   1,C   0,H   4)     59.9289         0.013004   
     34. D(H   6,C   1,C   0,H   4)   -178.6056         0.013004   
     35. D(C   5,C   1,C   0,H   3)    -59.9489         0.013004   
     36. D(C   5,C   1,C   0,H   2)    180.0000         0.013004   
     37. D(H   6,C   1,C   0,H   3)     61.5166         0.013004   
     38. D(H   9,C   5,C   1,H   6)    178.5150         0.013053   
     39. D(H   9,C   5,C   1,C   0)    -60.0182         0.013053   
     40. D(H   8,C   5,C   1,H   7)    -58.5615         0.013053   
     41. D(H   8,C   5,C   1,H   6)     58.5332         0.013053   
     42. D(H   9,C   5,C   1,H   7)     61.4203         0.013053   
     43. D(H   8,C   5,C   1,C   0)    180.0000         0.013053   
     44. D(H  10,C   5,C   1,H   7)   -178.5433         0.013053   
     45. D(H  10,C   5,C   1,H   6)    -61.4486         0.013053   
     46. D(H  10,C   5,C   1,C   0)     60.0182         0.013053   
    -----------------------------------------------------------------

Number of atoms                         .... 11
Number of degrees of freedom            .... 46

         *************************************************************
         *                GEOMETRY OPTIMIZATION CYCLE   1            *
         *************************************************************
---------------------------------
CARTESIAN COORDINATES (ANGSTROEM)
---------------------------------
  C     -5.467000    1.905000   -0.072000
  C     -3.959000    1.905000   -0.072000
  H     -5.856000    2.951000   -0.072000
  H     -5.860000    1.382000   -0.976000
  H     -5.860000    1.381000    0.833000
  C     -3.400000    0.505000   -0.072000
  H     -3.585000    2.457000   -0.974000
  H     -3.585000    2.457000    0.831000
  H     -2.283000    0.532000   -0.072000
  H     -3.739000   -0.054000    0.833000
  H     -3.739000   -0.054000   -0.977000

----------------------------
CARTESIAN COORDINATES (A.U.)
----------------------------
  NO LB      ZA    FRAG     MASS         X           Y           Z
   0 C     6.0000    0    12.011  -10.331133    3.599928   -0.136060
   1 C     6.0000    0    12.011   -7.481426    3.599928   -0.136060
   2 H     1.0000    0     1.008  -11.066236    5.576582   -0.136060
   3 H     1.0000    0     1.008  -11.073795    2.611602   -1.844373
   4 H     1.0000    0     1.008  -11.073795    2.609712    1.574142
   5 C     6.0000    0    12.011   -6.425069    0.954312   -0.136060
   6 H     1.0000    0     1.008   -6.774668    4.643057   -1.840593
   7 H     1.0000    0     1.008   -6.774668    4.643057    1.570362
   8 H     1.0000    0     1.008   -4.314245    1.005334   -0.136060
   9 H     1.0000    0     1.008   -7.065686   -0.102045    1.574142
  10 H     1.0000    0     1.008   -7.065686   -0.102045   -1.846262

--------------------------------
INTERNAL COORDINATES (ANGSTROEM)
--------------------------------
 C      0   0   0     0.000000000000     0.00000000     0.00000000
 C      1   0   0     1.508000000000     0.00000000     0.00000000
 H      1   2   0     1.115991487423   110.39981170     0.00000000
 H      1   2   3     1.115882610313   110.62117600   120.05109098
 H      1   2   3     1.117161581867   110.59649497   239.92892161
 C      2   1   3     1.507475041253   111.76612015   180.00000000
 H      2   1   3     1.121688013665   109.47685505   301.46552316
 H      2   1   3     1.122492316232   109.46233627    58.56273541
 H      6   2   1     1.117326272850   110.38144256   180.00000000
 H      6   2   1     1.116434951083   110.63456468   299.98179972
 H      6   2   1     1.116434951083   110.63456468    60.01820028

---------------------------
INTERNAL COORDINATES (A.U.)
---------------------------
 C      0   0   0     0.000000000000     0.00000000     0.00000000
 C      1   0   0     2.849707009953     0.00000000     0.00000000
 H      1   2   0     2.108918279016   110.39981170     0.00000000
 H      1   2   3     2.108712531098   110.62117600   120.05109098
 H      1   2   3     2.111129437067   110.59649497   239.92892161
 C      2   1   3     2.848714981689   111.76612015   180.00000000
 H      2   1   3     2.119683153529   109.47685505   301.46552316
 H      2   1   3     2.121203065110   109.46233627    58.56273541
 H      6   2   1     2.111440657921   110.38144256   180.00000000
 H      6   2   1     2.109756303885   110.63456468   299.98179972
 H      6   2   1     2.109756303885   110.63456468    60.01820028

---------------------
BASIS SET INFORMATION
---------------------
There are 2 groups of distinct atoms

 Group   1 Type C   : 11s6p1d contracted to 5s3p1d pattern {62111/411/1}
 Group   2 Type H   : 4s1p contracted to 2s1p pattern {31/1}

Atom   0C    basis set group =>   1
Atom   1C    basis set group =>   1
Atom   2H    basis set group =>   2
Atom   3H    basis set group =>   2
Atom   4H    basis set group =>   2
Atom   5C    basis set group =>   1
Atom   6H    basis set group =>   2
Atom   7H    basis set group =>   2
Atom   8H    basis set group =>   2
Atom   9H    basis set group =>   2
Atom  10H    basis set group =>   2
---------------------------------
AUXILIARY/J BASIS SET INFORMATION
---------------------------------
There are 2 groups of distinct atoms

 Group   1 Type C   : 8s3p3d contracted to 6s3p3d pattern {311111/111/111}
 Group   2 Type H   : 5s2p1d contracted to 3s1p1d pattern {311/2/1}

Atom   0C    basis set group =>   1
Atom   1C    basis set group =>   1
Atom   2H    basis set group =>   2
Atom   3H    basis set group =>   2
Atom   4H    basis set group =>   2
Atom   5C    basis set group =>   1
Atom   6H    basis set group =>   2
Atom   7H    basis set group =>   2
Atom   8H    basis set group =>   2
Atom   9H    basis set group =>   2
Atom  10H    basis set group =>   2


           ************************************************************
           *        Program running with 12 parallel MPI-processes    *
           *              working on a common directory               *
           ************************************************************
------------------------------------------------------------------------------
                           ORCA GTO INTEGRAL CALCULATION
                           -- RI-GTO INTEGRALS CHOSEN --
------------------------------------------------------------------------------
------------------------------------------------------------------------------
                   ___                                                        
                  /   \      - P O W E R E D   B Y -                         
                 /     \                                                     
                 |  |  |   _    _      __       _____    __    __             
                 |  |  |  | |  | |    /  \     |  _  \  |  |  /  |          
                  \  \/   | |  | |   /    \    | | | |  |  | /  /          
                 / \  \   | |__| |  /  /\  \   | |_| |  |  |/  /          
                |  |  |   |  __  | /  /__\  \  |    /   |      \           
                |  |  |   | |  | | |   __   |  |    \   |  |\   \          
                \     /   | |  | | |  |  |  |  | |\  \  |  | \   \       
                 \___/    |_|  |_| |__|  |__|  |_| \__\ |__|  \__/        
                                                                              
                      - O R C A' S   B I G   F R I E N D -                    
                                      &                                       
                       - I N T E G R A L  F E E D E R -                       
                                                                              
 v1 FN, 2020, v2 2021                                                         
------------------------------------------------------------------------------


Reading SHARK input file propane_initial.SHARKINP.tmp ... ok
----------------------
SHARK INTEGRAL PACKAGE
----------------------

Number of atoms                             ...     11
Number of basis functions                   ...     97
Number of shells                            ...     51
Maximum angular momentum                    ...      2
Integral batch strategy                     ... SHARK/LIBINT Hybrid
RI-J (if used) integral strategy            ... SPLIT-RIJ (Revised 2003 algorithm where possible)
Printlevel                                  ...      1
Contraction scheme used                     ... SEGMENTED contraction
Coulomb Range Separation                    ... NOT USED
Exchange Range Separation                   ... NOT USED
Finite Nucleus Model                        ... NOT USED
Auxiliary Coulomb fitting basis             ... AVAILABLE
   # of basis functions in Aux-J            ...    178
   # of shells in Aux-J                     ...     76
   Maximum angular momentum in Aux-J        ...      2
Auxiliary J/K fitting basis                 ... NOT available
Auxiliary Correlation fitting basis         ... NOT available
Auxiliary 'external' fitting basis          ... NOT available
Integral threshold                          ...     2.500000e-11
Primitive cut-off                           ...     2.500000e-12
Primitive pair pre-selection threshold      ...     2.500000e-12

Calculating pre-screening integrals         ... done (  0.2 sec) Dimension = 51
Organizing shell pair data                  ... done (  0.0 sec)
Shell pair information
Total number of shell pairs                 ...      1326
Shell pairs after pre-screening             ...      1313
Total number of primitive shell pairs       ...      4555
Primitive shell pairs kept                  ...      3705
          la=0 lb=0:    488 shell pairs
          la=1 lb=0:    523 shell pairs
          la=1 lb=1:    152 shell pairs
          la=2 lb=0:     93 shell pairs
          la=2 lb=1:     51 shell pairs
          la=2 lb=2:      6 shell pairs

Calculating one electron integrals          ... done (  0.0 sec)
Calculating RI/J V-Matrix + Cholesky decomp.... done (  0.1 sec)
Calculating Nuclear repulsion               ... done (  0.0 sec) ENN=     82.570232588887 Eh

SHARK setup successfully completed in   0.3 seconds

Maximum memory used throughout the entire GTOINT-calculation: 7.7 MB


           ************************************************************
           *        Program running with 12 parallel MPI-processes    *
           *              working on a common directory               *
           ************************************************************
-------------------------------------------------------------------------------
                                 ORCA SCF
-------------------------------------------------------------------------------

------------
SCF SETTINGS
------------
Hamiltonian:
 Density Functional     Method          .... DFT(GTOs)
  Functional kind                       .... Exchange
  Functional name                       .... Re-regularized SCAN exchange by Furness et al
  Functional family                     .... MGGA
  Functional refs                              
    [ 0] J. W. Furness, A. D. Kaplan, J. Ning, J. P. Perdew, and J. Sun, J. Phys. Chem. Lett. 11, 8208 (2020)
    [ 1] J. W. Furness, A. D. Kaplan, J. Ning, J. P. Perdew, and J. Sun, J. Phys. Chem. Lett. 11, 9248 (2020)
  Functional external parameters         .... 8
 Parameter  0 :         c1 parameter
 Parameter  1 :         c2 parameter
 Parameter  2 :          d parameter
 Parameter  3 :         k1 parameter
 Parameter  4 :       taur parameter
 Parameter  5 :     alphar parameter
 Parameter  6 :        eta parameter
 Parameter  7 :        dp2 parameter
  Functional kind                       .... Correlation
  Functional name                       .... Re-regularized SCAN correlation by Furness et al
  Functional family                     .... MGGA
  Functional refs                              
    [ 0] J. W. Furness, A. D. Kaplan, J. Ning, J. P. Perdew, and J. Sun, J. Phys. Chem. Lett. 11, 8208 (2020)
    [ 1] J. W. Furness, A. D. Kaplan, J. Ning, J. P. Perdew, and J. Sun, J. Phys. Chem. Lett. 11, 9248 (2020)
  Functional external parameters         .... 0
 Gradients option       PostSCFGGA      .... off
   Density functional embedding theory  .... OFF
 RI-approximation to the Coulomb term is turned on
   Number of AuxJ basis functions       .... 178


General Settings:
 Integral files         IntName         .... propane_initial
 Hartree-Fock type      HFTyp           .... RHF
 Total Charge           Charge          ....    0
 Multiplicity           Mult            ....    1
 Number of Electrons    NEL             ....   26
 Basis Dimension        Dim             ....   97
 Nuclear Repulsion      ENuc            ....     82.5702325889 Eh

Convergence Acceleration:
 DIIS                   CNVDIIS         .... on
   Start iteration      DIISMaxIt       ....    12
   Startup error        DIISStart       ....  0.200000
   # of expansion vecs  DIISMaxEq       ....     5
   Bias factor          DIISBfac        ....   1.050
   Max. coefficient     DIISMaxC        ....  10.000
 Trust-Rad. Augm. Hess. CNVTRAH         .... auto
   Auto Start mean grad. ratio tolernc. ....  1.125000
   Auto Start start iteration           ....    20
   Auto Start num. interpolation iter.  ....    10
   Max. Number of Micro iterations      ....    16
   Max. Number of Macro iterations      .... Maxiter - #DIIS iter
   Number of Davidson start vectors     ....     2
   Converg. threshold I  (grad. norm)   ....   1.000e-05
   Converg. threshold II (energy diff.) ....   1.000e-08
   Grad. Scal. Fac. for Micro threshold ....   0.100
   Minimum threshold for Micro iter.    ....   0.010
   NR start threshold (gradient norm)   ....   0.001
   Initial trust radius                 ....   0.400
   Minimum AH scaling param. (alpha)    ....   1.000
   Maximum AH scaling param. (alpha)    .... 1000.000
   Orbital update algorithm             .... Taylor
   White noise on init. David. guess    .... on
   Maximum white noise                  ....   0.010
   Quad. conv. algorithm                .... NR
   COSX micro iterations for RIJONX calc.... off
 SOSCF                  CNVSOSCF        .... on
   Start iteration      SOSCFMaxIt      ....   150
   Startup grad/error   SOSCFStart      ....  0.003300
 Level Shifting         CNVShift        .... on
   Level shift para.    LevelShift      ....    0.2500
   Turn off err/grad.   ShiftErr        ....    0.0010
 Zerner damping         CNVZerner       .... off
 Static damping         CNVDamp         .... on
   Fraction old density DampFac         ....    0.7000
   Max. Damping (<1)    DampMax         ....    0.9800
   Min. Damping (>=0)   DampMin         ....    0.0000
   Turn off err/grad.   DampErr         ....    0.1000
 Fernandez-Rico         CNVRico         .... off

SCF Procedure:
 Maximum # iterations   MaxIter         ....   125
 SCF integral mode      SCFMode         .... Direct
   Integral package                     .... SHARK and LIBINT hybrid scheme
 Reset frequency        DirectResetFreq ....    20
 Integral Threshold     Thresh          ....  2.500e-11 Eh
 Primitive CutOff       TCut            ....  2.500e-12 Eh

Convergence Tolerance:
 Convergence Check Mode ConvCheckMode   .... Total+1el-Energy
 Convergence forced     ConvForced      .... 0
 Energy Change          TolE            ....  1.000e-08 Eh
 1-El. energy change                    ....  1.000e-05 Eh
 Orbital Gradient       TolG            ....  1.000e-05
 Orbital Rotation angle TolX            ....  1.000e-05
 DIIS Error             TolErr          ....  5.000e-07


Diagonalization of the overlap matrix:
Smallest eigenvalue                        ... 5.033e-04
Time for diagonalization                   ...    0.088 sec
Threshold for overlap eigenvalues          ... 1.000e-08
Number of eigenvalues below threshold      ... 0
Time for construction of square roots      ...    0.032 sec
Total time needed                          ...    0.121 sec

Time for model grid setup =    0.227 sec

------------------------------
INITIAL GUESS: MODEL POTENTIAL
------------------------------
Loading Hartree-Fock densities                     ... done
Calculating cut-offs                               ... done
Initializing the effective Hamiltonian             ... done
Setting up the integral package (SHARK)            ... done
Starting the Coulomb interaction                   ... done (   0.1 sec)
Reading the grid                                   ... done
Mapping shells                                     ... done
Starting the XC term evaluation                    ... done (   0.0 sec)
  promolecular density results
     # of electrons  =     25.996370687
     EX              =    -17.664600471
     EC              =     -0.816180391
     EX+EC           =    -18.480780862
Transforming the Hamiltonian                       ... done (   0.0 sec)
Diagonalizing the Hamiltonian                      ... done (   0.0 sec)
Back transforming the eigenvectors                 ... done (   0.0 sec)
Now organizing SCF variables                       ... done
                      ------------------
                      INITIAL GUESS DONE (   0.4 sec)
                      ------------------
-------------------
DFT GRID GENERATION
-------------------

General Integration Accuracy     IntAcc      ... 4.388
Radial Grid Type                 RadialGrid  ... OptM3 with GC (2021)
Angular Grid (max. ang.)         AngularGrid ... 4 (Lebedev-302)
Angular grid pruning method      GridPruning ... 4 (adaptive)
Weight generation scheme         WeightScheme... Becke
Basis function cutoff            BFCut       ... 1.0000e-11
Integration weight cutoff        WCut        ... 1.0000e-14
Angular grids for H and He will be reduced by one unit
Partially contracted basis set               ... off
Rotationally invariant grid construction     ... off

Total number of grid points                  ...    44016
Total number of batches                      ...      692
Average number of points per batch           ...       63
Average number of grid points per atom       ...     4001
Time for grid setup =    0.359 sec

--------------
SCF ITERATIONS
--------------
ITER       Energy         Delta-E        Max-DP      RMS-DP      [F,P]     Damp
               ***  Starting incremental Fock matrix formation  ***
  0   -118.9508553623   0.000000000000 0.03381659  0.00207985  0.1858237 0.7000
  1   -119.0202260489  -0.069370686603 0.02195815  0.00149970  0.0924528 0.7000
                               ***Turning on DIIS***
  2   -119.0453765052  -0.025150456227 0.03278950  0.00227238  0.0302590 0.0000
  3   -119.0794402157  -0.034063710518 0.01488366  0.00103090  0.0544922 0.0000
  4   -119.0919054864  -0.012465270719 0.00466588  0.00028642  0.0127396 0.0000
  5   -119.0925962578  -0.000690771381 0.00131612  0.00009486  0.0033663 0.0000
                      *** Initiating the SOSCF procedure ***
                           *** Shutting down DIIS ***
                      *** Re-Reading the Fockian *** 
                      *** Removing any level shift *** 
ITER      Energy       Delta-E        Grad      Rot      Max-DP    RMS-DP
  6   -119.09264423  -0.0000479712  0.000259  0.000259  0.000578  0.000046
               *** Restarting incremental Fock matrix formation ***
  7   -119.09264751  -0.0000032852  0.000153  0.000306  0.000289  0.000018
  8   -119.09264714   0.0000003770  0.000204  0.000175  0.000169  0.000010
                  ***Gradient check signals convergence***
              ***Rediagonalizing the Fockian in SOSCF/NRSCF***

               *****************************************************
               *                     SUCCESS                       *
               *           SCF CONVERGED AFTER   9 CYCLES          *
               *****************************************************


----------------
TOTAL SCF ENERGY
----------------

Total Energy       :         -119.09264800 Eh           -3240.67570 eV

Components:
Nuclear Repulsion  :           82.57023259 Eh            2246.85026 eV
Electronic Energy  :         -201.66288059 Eh           -5487.52596 eV
One Electron Energy:         -321.91223704 Eh           -8759.67730 eV
Two Electron Energy:          120.24935645 Eh            3272.15134 eV

Virial components:
Potential Energy   :         -237.36948652 Eh           -6459.15211 eV
Kinetic Energy     :          118.27683852 Eh            3218.47640 eV
Virial Ratio       :            2.00689746


DFT components:
N(Alpha)           :       12.999980963694 electrons
N(Beta)            :       12.999980963694 electrons
N(Total)           :       25.999961927388 electrons
E(X)               :      -18.383140366256 Eh       
E(C)               :       -0.776871501802 Eh       
E(XC)              :      -19.160011868058 Eh       
DFET-embed. en.    :        0.000000000000 Eh       

---------------
SCF CONVERGENCE
---------------

  Last Energy change         ...   -8.6197e-07  Tolerance :   1.0000e-08
  Last MAX-Density change    ...    4.9617e-06  Tolerance :   1.0000e-07
  Last RMS-Density change    ...    2.4698e-07  Tolerance :   5.0000e-09
  Last Orbital Gradient      ...    2.2619e-06  Tolerance :   1.0000e-05
  Last Orbital Rotation      ...    3.9440e-06  Tolerance :   1.0000e-05

             **** THE GBW FILE WAS UPDATED (propane_initial.gbw) ****
             **** DENSITY propane_initial.scfp WAS UPDATED ****
             **** ENERGY FILE WAS UPDATED (propane_initial.en.tmp) ****
             **** THE GBW FILE WAS UPDATED (propane_initial.gbw) ****
             **** DENSITY propane_initial.scfp WAS UPDATED ****
----------------
ORBITAL ENERGIES
----------------

  NO   OCC          E(Eh)            E(eV) 
   0   2.0000     -10.027889      -272.8727 
   1   2.0000     -10.021610      -272.7019 
   2   2.0000     -10.021520      -272.6994 
   3   2.0000      -0.747987       -20.3538 
   4   2.0000      -0.640265       -17.4225 
   5   2.0000      -0.539954       -14.6929 
   6   2.0000      -0.423935       -11.5358 
   7   2.0000      -0.403179       -10.9711 
   8   2.0000      -0.365100        -9.9349 
   9   2.0000      -0.343692        -9.3523 
  10   2.0000      -0.303453        -8.2574 
  11   2.0000      -0.302578        -8.2336 
  12   2.0000      -0.289974        -7.8906 
  13   0.0000       0.095064         2.5868 
  14   0.0000       0.128400         3.4939 
  15   0.0000       0.138452         3.7675 
  16   0.0000       0.146587         3.9888 
  17   0.0000       0.148321         4.0360 
  18   0.0000       0.166021         4.5177 
  19   0.0000       0.184315         5.0155 
  20   0.0000       0.196170         5.3381 
  21   0.0000       0.218243         5.9387 
  22   0.0000       0.223178         6.0730 
  23   0.0000       0.234088         6.3698 
  24   0.0000       0.240863         6.5542 
  25   0.0000       0.241083         6.5602 
  26   0.0000       0.251826         6.8525 
  27   0.0000       0.268261         7.2998 
  28   0.0000       0.286863         7.8059 
  29   0.0000       0.308421         8.3926 
  30   0.0000       0.407482        11.0882 
  31   0.0000       0.444031        12.0827 
  32   0.0000       0.470897        12.8138 
  33   0.0000       0.511223        13.9111 
  34   0.0000       0.519089        14.1251 
  35   0.0000       0.979040        26.6410 
  36   0.0000       1.030763        28.0485 
  37   0.0000       1.032122        28.0855 
  38   0.0000       1.039385        28.2831 
  39   0.0000       1.056517        28.7493 
  40   0.0000       1.057065        28.7642 
  41   0.0000       1.080204        29.3938 
  42   0.0000       1.106537        30.1104 
  43   0.0000       1.188981        32.3538 
  44   0.0000       1.199144        32.6304 
  45   0.0000       1.301899        35.4265 
  46   0.0000       1.304934        35.5091 
  47   0.0000       1.327098        36.1122 
  48   0.0000       1.351388        36.7731 
  49   0.0000       1.364240        37.1228 
  50   0.0000       1.375019        37.4162 
  51   0.0000       1.375729        37.4355 
  52   0.0000       1.390431        37.8356 
  53   0.0000       1.400828        38.1185 
  54   0.0000       1.534544        41.7571 
  55   0.0000       1.534863        41.7658 
  56   0.0000       1.615500        43.9600 
  57   0.0000       1.668366        45.3986 
  58   0.0000       1.670686        45.4617 
  59   0.0000       1.805995        49.1436 
  60   0.0000       1.874267        51.0014 
  61   0.0000       1.874485        51.0073 
  62   0.0000       1.924360        52.3645 
  63   0.0000       2.084436        56.7204 
  64   0.0000       2.138215        58.1838 
  65   0.0000       2.143004        58.3141 
  66   0.0000       2.164817        58.9077 
  67   0.0000       2.204048        59.9752 
  68   0.0000       2.225307        60.5537 
  69   0.0000       2.241321        60.9894 
  70   0.0000       2.255424        61.3732 
  71   0.0000       2.257744        61.4363 
  72   0.0000       2.279129        62.0182 
  73   0.0000       2.469239        67.1914 
  74   0.0000       2.519947        68.5712 
  75   0.0000       2.592843        70.5549 
  76   0.0000       2.595323        70.6223 
  77   0.0000       2.620881        71.3178 
  78   0.0000       2.623047        71.3767 
  79   0.0000       2.712351        73.8068 
  80   0.0000       2.754543        74.9549 
  81   0.0000       2.786459        75.8234 
  82   0.0000       2.795931        76.0812 
  83   0.0000       2.840915        77.3052 
  84   0.0000       2.863675        77.9245 
  85   0.0000       3.023173        82.2647 
  86   0.0000       3.207243        87.2735 
  87   0.0000       3.415025        92.9276 
  88   0.0000       3.472146        94.4819 
  89   0.0000       3.501888        95.2912 
  90   0.0000       3.532671        96.1289 
  91   0.0000       3.536343        96.2288 
  92   0.0000       3.570730        97.1645 
  93   0.0000       3.596173        97.8568 
  94   0.0000      21.756595       592.0271 
  95   0.0000      21.892505       595.7253 
  96   0.0000      21.928907       596.7159 
-------
TIMINGS
-------

Total SCF time: 0 days 0 hours 0 min 6 sec 

Total time                  ....       6.255 sec
Sum of individual times     ....       5.271 sec  ( 84.3%)

Fock matrix formation       ....       4.319 sec  ( 69.1%)
  Split-RI-J                ....       0.387 sec  (  9.0% of F)
  XC integration            ....       3.111 sec  ( 72.0% of F)
    Basis function eval.    ....       0.120 sec  (  3.9% of XC)
    Density eval.           ....       0.157 sec  (  5.0% of XC)
    XC-Functional eval.     ....       0.186 sec  (  6.0% of XC)
    XC-Potential eval.      ....       0.222 sec  (  7.1% of XC)
Diagonalization             ....       0.059 sec  (  0.9%)
Density matrix formation    ....       0.004 sec  (  0.1%)
Population analysis         ....       0.000 sec  (  0.0%)
Initial guess               ....       0.141 sec  (  2.2%)
Orbital Transformation      ....       0.000 sec  (  0.0%)
Orbital Orthonormalization  ....       0.000 sec  (  0.0%)
DIIS solution               ....       0.138 sec  (  2.2%)
SOSCF solution              ....       0.024 sec  (  0.4%)
Grid generation             ....       0.586 sec  (  9.4%)

Maximum memory used throughout the entire SCF-calculation: 10.7 MB


-------------------------------------------------------------------------------
                          DFT DISPERSION CORRECTION                            
                                                                               
                                 DFTD4 V2.5                                    
-------------------------------------------------------------------------------
The R2SCAN3C composite method is recognized
Using three-body term ABC
Active option DFTDOPT                   ...         5   

Starting D4
-------------------------   ----------------
Dispersion correction           -0.001709375
-------------------------   ----------------

------------------   -----------------
gCP correction             0.005072777
------------------   -----------------

-------------------------   --------------------
FINAL SINGLE POINT ENERGY      -119.089284597591
-------------------------   --------------------



           ************************************************************
           *        Program running with 12 parallel MPI-processes    *
           *              working on a common directory               *
           ************************************************************
------------------------------------------------------------------------------
                         ORCA SCF GRADIENT CALCULATION
------------------------------------------------------------------------------

Gradient of the Kohn-Sham DFT energy:
Kohn-Sham wavefunction type      ... RKS
Hartree-Fock exchange scaling    ...    0.000
Number of operators              ...    1
Number of atoms                  ...   11
Basis set dimensions             ...   97
Integral neglect threshold       ... 2.5e-11
Integral primitive cutoff        ... 2.5e-12
SHARK Integral package           ... ON

Nuc. rep. gradient       (SHARK) ... done (  0.0 sec)
HCore & Overlap gradient (SHARK) ... done (  0.1 sec)
RI-J gradient            (SHARK) ... done (  0.4 sec)
Exchange-correlation gradient    ... done
Dispersion correction            ... Starting D4
Starting D4
Starting D4
Starting D4
Starting D4
Starting D4
Starting D4
Starting D4
Starting D4
Starting D4
Starting D4
Starting D4


------------------- 
Dispersion Gradient 
------------------- 
   1  :   -0.000031439    0.000013269    0.000000010
   2  :    0.000007451    0.000010994   -0.000000001
   3  :   -0.000016492    0.000015232   -0.000000001
   4  :   -0.000015597    0.000003551   -0.000006035
   5  :   -0.000015617    0.000003527    0.000006072
   6  :    0.000024000   -0.000024250   -0.000000003
   7  :    0.000004327    0.000006386   -0.000004337
   8  :    0.000004334    0.000006397    0.000004350
   9  :    0.000020321   -0.000009660   -0.000000002
  10  :    0.000009082   -0.000013176    0.000006054
  11  :    0.000009083   -0.000013177   -0.000006060

  |G| =    0.000310288

done
gCP correction                   ... done

------------------
CARTESIAN GRADIENT
------------------

   1   C   :    0.018149028   -0.004417554   -0.000529707
   2   C   :   -0.011525424   -0.017506789   -0.000358088
   3   H   :   -0.001130510    0.012939450   -0.000042491
   4   H   :   -0.002567024   -0.005757157   -0.010269625
   5   H   :   -0.002776576   -0.006139867    0.010839568
   6   C   :   -0.011834668    0.015321502    0.000002619
   7   H   :    0.003663664    0.005405034   -0.012181567
   8   H   :    0.003795870    0.005600122    0.012533709
   9   H   :    0.013103424    0.003742976    0.000000676
  10   H   :   -0.004438997   -0.004595812    0.010606707
  11   H   :   -0.004439332   -0.004592809   -0.010601753

Difference to translation invariance:
           :   -0.0000005454   -0.0000009057    0.0000000476

Difference to rotation invariance:
           :    0.0000000043    0.0000000650   -0.0000643023

Norm of the cartesian gradient     ...    0.0502631290
RMS gradient                       ...    0.0087496877
MAX gradient                       ...    0.0181490280

-------
TIMINGS
-------

Total SCF gradient time            ...        0.986 sec

One electron gradient       ....       0.070 sec  (  7.2%)
RI-J Coulomb gradient       ....       0.360 sec  ( 36.6%)
XC gradient                 ....       0.182 sec  ( 18.5%)

Maximum memory used throughout the entire SCFGRAD-calculation: 25.4 MB
------------------------------------------------------------------------------
                         ORCA GEOMETRY RELAXATION STEP
------------------------------------------------------------------------------

Reading the OPT-File                    .... done
Getting information on internals        .... done
Copying old internal coords+grads       .... done
Making the new internal coordinates     .... (new redundants).... done
Validating the new internal coordinates .... (new redundants).... done
Calculating the B-matrix                .... done
Calculating the G,G- and P matrices     .... done
Transforming gradient to internals      .... done
Projecting the internal gradient        .... done
Number of atoms                         ....  11
Number of internal coordinates          ....  46
Current Energy                          ....  -119.089284598 Eh
Current gradient norm                   ....     0.050263129 Eh/bohr
Maximum allowed component of the step   ....  0.300
Current trust radius                    ....  0.300
Evaluating the initial hessian          ....  (Almloef) done
Projecting the Hessian                  .... done
Forming the augmented Hessian           .... done
Diagonalizing the augmented Hessian     .... done
Last element of RFO vector              ....  0.992121832
Lowest eigenvalues of augmented Hessian:
 -0.005103421  0.013004235  0.013052885  0.077632245  0.089415378
Length of the computed step             ....  0.126271565
The final length of the internal step   ....  0.126271565
Converting the step to cartesian space:
 Initial RMS(Int)=    0.0186177266
Transforming coordinates:
 Iter   0:  RMS(Cart)=    0.0271742604 RMS(Int)=    0.0186334353
 Iter   1:  RMS(Cart)=    0.0001813828 RMS(Int)=    0.0001195485
 Iter   2:  RMS(Cart)=    0.0000038605 RMS(Int)=    0.0000030921
 Iter   3:  RMS(Cart)=    0.0000000979 RMS(Int)=    0.0000000685
done
Storing new coordinates                 .... done

                                .--------------------.
          ----------------------|Geometry convergence|-------------------------
          Item                value                   Tolerance       Converged
          ---------------------------------------------------------------------
          RMS gradient        0.0060922801            0.0001000000      NO
          MAX gradient        0.0141015812            0.0003000000      NO
          RMS step            0.0186177266            0.0020000000      NO
          MAX step            0.0434313823            0.0040000000      NO
          ........................................................
          Max(Bonds)      0.0230      Max(Angles)    0.87
          Max(Dihed)        0.64      Max(Improp)    0.00
          ---------------------------------------------------------------------

The optimization has not yet converged - more geometry cycles are needed


    ---------------------------------------------------------------------------
                         Redundant Internal Coordinates
                            (Angstroem and degrees)

        Definition                    Value    dE/dq     Step     New-Value
    ----------------------------------------------------------------------------
     1. B(C   1,C   0)                1.5080 -0.011672  0.0151    1.5231   
     2. B(H   2,C   0)                1.1160  0.012521 -0.0199    1.0961   
     3. B(H   3,C   0)                1.1159  0.011923 -0.0190    1.0969   
     4. B(H   4,C   0)                1.1172  0.012639 -0.0202    1.0970   
     5. B(C   5,C   1)                1.5075 -0.011997  0.0154    1.5229   
     6. B(H   6,C   1)                1.1217  0.013677 -0.0222    1.0995   
     7. B(H   7,C   1)                1.1225  0.014102 -0.0230    1.0995   
     8. B(H   8,C   5)                1.1173  0.013191 -0.0211    1.0962   
     9. B(H   9,C   5)                1.1164  0.012246 -0.0195    1.0969   
    10. B(H  10,C   5)                1.1164  0.012240 -0.0195    1.0969   
    11. A(H   2,C   0,H   4)          108.48  0.002764   -0.46    108.03   
    12. A(C   1,C   0,H   2)          110.40 -0.004426    0.86    111.26   
    13. A(H   3,C   0,H   4)          108.21  0.001885   -0.48    107.73   
    14. A(H   2,C   0,H   3)          108.45  0.002706   -0.44    108.02   
    15. A(C   1,C   0,H   3)          110.62 -0.001296    0.23    110.85   
    16. A(C   1,C   0,H   4)          110.60 -0.001354    0.23    110.83   
    17. A(C   0,C   1,C   5)          111.77 -0.003625    0.82    112.59   
    18. A(H   6,C   1,H   7)          107.09  0.000544   -0.73    106.36   
    19. A(C   5,C   1,H   7)          109.46  0.000813   -0.04    109.42   
    20. A(C   0,C   1,H   7)          109.46  0.000812   -0.04    109.42   
    21. A(C   5,C   1,H   6)          109.47  0.000819   -0.04    109.43   
    22. A(C   0,C   1,H   6)          109.48  0.000819   -0.04    109.44   
    23. A(H   8,C   5,H   9)          108.40  0.002715   -0.43    107.97   
    24. A(C   1,C   5,H   9)          110.63 -0.001369    0.23    110.87   
    25. A(C   1,C   5,H   8)          110.38 -0.004415    0.87    111.25   
    26. A(H   9,C   5,H  10)          108.31  0.002002   -0.52    107.79   
    27. A(H   8,C   5,H  10)          108.40  0.002717   -0.43    107.97   
    28. A(C   1,C   5,H  10)          110.63 -0.001370    0.23    110.87   
    29. D(H   7,C   1,C   0,H   2)     58.56  0.000814   -0.47     58.09   
    30. D(H   6,C   1,C   0,H   2)    -58.53 -0.000785    0.45    -58.08   
    31. D(H   7,C   1,C   0,H   4)    -61.51  0.001113   -0.61    -62.12   
    32. D(H   7,C   1,C   0,H   3)    178.61  0.000478   -0.31    178.30   
    33. D(C   5,C   1,C   0,H   4)     59.93  0.000308   -0.15     59.78   
    34. D(H   6,C   1,C   0,H   4)   -178.61 -0.000486    0.31   -178.29   
    35. D(C   5,C   1,C   0,H   3)    -59.95 -0.000327    0.16    -59.79   
    36. D(C   5,C   1,C   0,H   2)    180.00  0.000009   -0.01    179.99   
    37. D(H   6,C   1,C   0,H   3)     61.52 -0.001121    0.61     62.13   
    38. D(H   9,C   5,C   1,H   6)    178.51  0.000438   -0.29    178.23   
    39. D(H   9,C   5,C   1,C   0)    -60.02 -0.000356    0.17    -59.85   
    40. D(H   8,C   5,C   1,H   7)    -58.56 -0.000802    0.46    -58.10   
    41. D(H   8,C   5,C   1,H   6)     58.53  0.000798   -0.46     58.07   
    42. D(H   9,C   5,C   1,H   7)     61.42 -0.001162    0.64     62.06   
    43. D(H   8,C   5,C   1,C   0)    180.00  0.000004   -0.00    180.00   
    44. D(H  10,C   5,C   1,H   7)   -178.54 -0.000443    0.29   -178.25   
    45. D(H  10,C   5,C   1,H   6)    -61.45  0.001157   -0.63    -62.08   
    46. D(H  10,C   5,C   1,C   0)     60.02  0.000363   -0.17     59.84   
    ----------------------------------------------------------------------------

         *************************************************************
         *                GEOMETRY OPTIMIZATION CYCLE   2            *
         *************************************************************
---------------------------------
CARTESIAN COORDINATES (ANGSTROEM)
---------------------------------
  C     -5.481176    1.917082   -0.071808
  C     -3.958153    1.906411   -0.071830
  H     -5.871416    2.941317   -0.071647
  H     -5.875128    1.404122   -0.957744
  H     -5.874801    1.403769    0.814128
  C     -3.383163    0.496202   -0.071927
  H     -3.588531    2.452173   -0.951795
  H     -3.588682    2.451802    0.808489
  H     -2.287085    0.514100   -0.071974
  H     -3.712397   -0.060032    0.814312
  H     -3.712468   -0.059946   -0.958203

----------------------------
CARTESIAN COORDINATES (A.U.)
----------------------------
  NO LB      ZA    FRAG     MASS         X           Y           Z
   0 C     6.0000    0    12.011  -10.357921    3.622759   -0.135697
   1 C     6.0000    0    12.011   -7.479825    3.602594   -0.135739
   2 H     1.0000    0     1.008  -11.095368    5.558285   -0.135393
   3 H     1.0000    0     1.008  -11.102383    2.653406   -1.809875
   4 H     1.0000    0     1.008  -11.101765    2.652740    1.538480
   5 C     6.0000    0    12.011   -6.393252    0.937687   -0.135922
   6 H     1.0000    0     1.008   -6.781341    4.633935   -1.798633
   7 H     1.0000    0     1.008   -6.781627    4.633234    1.527822
   8 H     1.0000    0     1.008   -4.321964    0.971507   -0.136011
   9 H     1.0000    0     1.008   -7.015413   -0.113443    1.538826
  10 H     1.0000    0     1.008   -7.015548   -0.113281   -1.810742

--------------------------------
INTERNAL COORDINATES (ANGSTROEM)
--------------------------------
 C      0   0   0     0.000000000000     0.00000000     0.00000000
 C      1   0   0     1.523060372870     0.00000000     0.00000000
 H      1   2   0     1.096059293700   111.25857358     0.00000000
 H      1   2   3     1.096909351373   110.84557255   120.21238575
 H      1   2   3     1.096956260910   110.82767202   239.78772386
 C      2   1   3     1.522924844591   112.58382185   179.99490172
 H      2   1   3     1.099461390739   109.43335525   301.92001664
 H      2   1   3     1.099509418202   109.42280909    58.09071969
 H      6   2   1     1.096224661303   111.24691825   179.99819119
 H      6   2   1     1.096909021173   110.86621760   300.15388605
 H      6   2   1     1.096917630426   110.86640235    59.84296694

---------------------------
INTERNAL COORDINATES (A.U.)
---------------------------
 C      0   0   0     0.000000000000     0.00000000     0.00000000
 C      1   0   0     2.878166990152     0.00000000     0.00000000
 H      1   2   0     2.071251891632   111.25857358     0.00000000
 H      1   2   3     2.072858267832   110.84557255   120.21238575
 H      1   2   3     2.072946914011   110.82767202   239.78772386
 C      2   1   3     2.877910878821   112.58382185   179.99490172
 H      2   1   3     2.077680923317   109.43335525   301.92001664
 H      2   1   3     2.077771682069   109.42280909    58.09071969
 H      6   2   1     2.071564391113   111.24691825   179.99819119
 H      6   2   1     2.072857643845   110.86621760   300.15388605
 H      6   2   1     2.072873912974   110.86640235    59.84296694



           ************************************************************
           *        Program running with 12 parallel MPI-processes    *
           *              working on a common directory               *
           ************************************************************
------------------------------------------------------------------------------
                   ___                                                        
                  /   \      - P O W E R E D   B Y -                         
                 /     \                                                     
                 |  |  |   _    _      __       _____    __    __             
                 |  |  |  | |  | |    /  \     |  _  \  |  |  /  |          
                  \  \/   | |  | |   /    \    | | | |  |  | /  /          
                 / \  \   | |__| |  /  /\  \   | |_| |  |  |/  /          
                |  |  |   |  __  | /  /__\  \  |    /   |      \           
                |  |  |   | |  | | |   __   |  |    \   |  |\   \          
                \     /   | |  | | |  |  |  |  | |\  \  |  | \   \       
                 \___/    |_|  |_| |__|  |__|  |_| \__\ |__|  \__/        
                                                                              
                      - O R C A' S   B I G   F R I E N D -                    
                                      &                                       
                       - I N T E G R A L  F E E D E R -                       
                                                                              
 v1 FN, 2020, v2 2021                                                         
------------------------------------------------------------------------------


Reading SHARK input file propane_initial.SHARKINP.tmp ... ok
----------------------
SHARK INTEGRAL PACKAGE
----------------------

Number of atoms                             ...     11
Number of basis functions                   ...     97
Number of shells                            ...     51
Maximum angular momentum                    ...      2
Integral batch strategy                     ... SHARK/LIBINT Hybrid
RI-J (if used) integral strategy            ... SPLIT-RIJ (Revised 2003 algorithm where possible)
Printlevel                                  ...      1
Contraction scheme used                     ... SEGMENTED contraction
Coulomb Range Separation                    ... NOT USED
Exchange Range Separation                   ... NOT USED
Finite Nucleus Model                        ... NOT USED
Auxiliary Coulomb fitting basis             ... AVAILABLE
   # of basis functions in Aux-J            ...    178
   # of shells in Aux-J                     ...     76
   Maximum angular momentum in Aux-J        ...      2
Auxiliary J/K fitting basis                 ... NOT available
Auxiliary Correlation fitting basis         ... NOT available
Auxiliary 'external' fitting basis          ... NOT available
Integral threshold                          ...     2.500000e-11
Primitive cut-off                           ...     2.500000e-12
Primitive pair pre-selection threshold      ...     2.500000e-12

Calculating pre-screening integrals         ... done (  0.0 sec) Dimension = 51
Organizing shell pair data                  ... done (  0.0 sec)
Shell pair information
Total number of shell pairs                 ...      1326
Shell pairs after pre-screening             ...      1313
Total number of primitive shell pairs       ...      4555
Primitive shell pairs kept                  ...      3705
          la=0 lb=0:    488 shell pairs
          la=1 lb=0:    523 shell pairs
          la=1 lb=1:    152 shell pairs
          la=2 lb=0:     93 shell pairs
          la=2 lb=1:     51 shell pairs
          la=2 lb=2:      6 shell pairs

Calculating one electron integrals          ... done (  0.0 sec)
Calculating RI/J V-Matrix + Cholesky decomp.... done (  0.0 sec)
Calculating Nuclear repulsion               ... done (  0.0 sec) ENN=     82.597757602619 Eh

SHARK setup successfully completed in   0.1 seconds

Maximum memory used throughout the entire GTOINT-calculation: 7.7 MB


           ************************************************************
           *        Program running with 12 parallel MPI-processes    *
           *              working on a common directory               *
           ************************************************************

Diagonalization of the overlap matrix:
Smallest eigenvalue                        ... 5.386e-04
Time for diagonalization                   ...    0.003 sec
Threshold for overlap eigenvalues          ... 1.000e-08
Number of eigenvalues below threshold      ... 0
Time for construction of square roots      ...    0.006 sec
Total time needed                          ...    0.010 sec

-------------------
DFT GRID GENERATION
-------------------

General Integration Accuracy     IntAcc      ... 4.388
Radial Grid Type                 RadialGrid  ... OptM3 with GC (2021)
Angular Grid (max. ang.)         AngularGrid ... 4 (Lebedev-302)
Angular grid pruning method      GridPruning ... 4 (adaptive)
Weight generation scheme         WeightScheme... Becke
Basis function cutoff            BFCut       ... 1.0000e-11
Integration weight cutoff        WCut        ... 1.0000e-14
Angular grids for H and He will be reduced by one unit
Partially contracted basis set               ... off
Rotationally invariant grid construction     ... off

Total number of grid points                  ...    44017
Total number of batches                      ...      695
Average number of points per batch           ...       63
Average number of grid points per atom       ...     4002
Time for grid setup =    0.197 sec

--------------
SCF ITERATIONS
--------------
ITER       Energy         Delta-E        Max-DP      RMS-DP      [F,P]     Damp
               ***  Starting incremental Fock matrix formation  ***
  0   -119.0949401361   0.000000000000 0.00173103  0.00013391  0.0069426 0.7000
                      *** Initiating the SOSCF procedure ***
                      *** Re-Reading the Fockian *** 
                      *** Removing any level shift *** 
ITER      Energy       Delta-E        Grad      Rot      Max-DP    RMS-DP
  1   -119.09516107  -0.0002209306  0.001143  0.001143  0.004743  0.000383
               *** Restarting incremental Fock matrix formation ***
  2   -119.09558192  -0.0004208504  0.001413  0.002388  0.002537  0.000136
  3   -119.09556746   0.0000144544  0.001830  0.001339  0.001279  0.000080
  4   -119.09561693  -0.0000494722  0.000117  0.000167  0.000242  0.000015
  5   -119.09561711  -0.0000001772  0.000092  0.000074  0.000095  0.000007
  6   -119.09561729  -0.0000001797  0.000023  0.000026  0.000052  0.000002
  7   -119.09561729  -0.0000000007  0.000020  0.000015  0.000023  0.000001
                 **** Energy Check signals convergence ****
              ***Rediagonalizing the Fockian in SOSCF/NRSCF***

               *****************************************************
               *                     SUCCESS                       *
               *           SCF CONVERGED AFTER   8 CYCLES          *
               *****************************************************

Total Energy       :         -119.09561730 Eh           -3240.75650 eV
  Last Energy change         ...   -8.3679e-09  Tolerance :   1.0000e-08
  Last MAX-Density change    ...    5.9630e-06  Tolerance :   1.0000e-07
             **** THE GBW FILE WAS UPDATED (propane_initial.gbw) ****
             **** DENSITY propane_initial.scfp WAS UPDATED ****
             **** ENERGY FILE WAS UPDATED (propane_initial.en.tmp) ****
             **** THE GBW FILE WAS UPDATED (propane_initial.gbw) ****
             **** DENSITY propane_initial.scfp WAS UPDATED ****
Total SCF time: 0 days 0 hours 0 min 2 sec 

Maximum memory used throughout the entire SCF-calculation: 10.9 MB


-------------------------------------------------------------------------------
                          DFT DISPERSION CORRECTION                            
                                                                               
                                 DFTD4 V2.5                                    
-------------------------------------------------------------------------------
Starting D4
-------------------------   ----------------
Dispersion correction           -0.001704767
-------------------------   ----------------

------------------   -----------------
gCP correction             0.005216752
------------------   -----------------

-------------------------   --------------------
FINAL SINGLE POINT ENERGY      -119.092105315228
-------------------------   --------------------



           ************************************************************
           *        Program running with 12 parallel MPI-processes    *
           *              working on a common directory               *
           ************************************************************
------------------------------------------------------------------------------
                         ORCA SCF GRADIENT CALCULATION
------------------------------------------------------------------------------

Gradient of the Kohn-Sham DFT energy:
Kohn-Sham wavefunction type      ... RKS
Hartree-Fock exchange scaling    ...    0.000
Number of operators              ...    1
Number of atoms                  ...   11
Basis set dimensions             ...   97
Integral neglect threshold       ... 2.5e-11
Integral primitive cutoff        ... 2.5e-12
SHARK Integral package           ... ON

Nuc. rep. gradient       (SHARK) ... done (  0.0 sec)
HCore & Overlap gradient (SHARK) ... done (  0.0 sec)
RI-J gradient            (SHARK) ... done (  0.1 sec)
Exchange-correlation gradient    ... done
Dispersion correction            ... Starting D4
Starting D4
Starting D4
Starting D4
Starting D4
Starting D4


------------------- 
Dispersion Gradient 
------------------- 
   1  :   -0.000031801    0.000013779    0.000000003
   2  :    0.000007554    0.000011153    0.000000002
   3  :   -0.000016360    0.000014568    0.000000001
   4  :   -0.000015658    0.000004132   -0.000005494
   5  :   -0.000015653    0.000004129    0.000005494
   6  :    0.000024599   -0.000024407   -0.000000001
   7  :    0.000004076    0.000006020   -0.000003937
   8  :    0.000004074    0.000006017    0.000003938
   9  :    0.000019605   -0.000009781   -0.000000002
  10  :    0.000009650   -0.000013007    0.000005496
  11  :    0.000009650   -0.000013006   -0.000005498

  |G| =    0.000308545

Starting D4
Starting D4
Starting D4
Starting D4
Starting D4
Starting D4
done
gCP correction                   ... done

------------------
CARTESIAN GRADIENT
------------------

   1   C   :    0.001867321   -0.000607624   -0.000024425
   2   C   :   -0.001767220   -0.002843079   -0.000032877
   3   H   :    0.000498168    0.001037197   -0.000009154
   4   H   :    0.000205044   -0.000285788   -0.000620750
   5   H   :    0.000219258   -0.000312208    0.000647674
   6   C   :   -0.001529786    0.001543891    0.000014802
   7   H   :    0.000120788    0.000204368   -0.001077128
   8   H   :    0.000126208    0.000205328    0.001105731
   9   H   :    0.000821582    0.000816619   -0.000000724
  10   H   :   -0.000279422    0.000120816    0.000668518
  11   H   :   -0.000282205    0.000120079   -0.000671666

Difference to translation invariance:
           :   -0.0000002629   -0.0000004018    0.0000000014

Difference to rotation invariance:
           :   -0.0000001477   -0.0000002959   -0.0000426561

Norm of the cartesian gradient     ...    0.0052067309
RMS gradient                       ...    0.0009063755
MAX gradient                       ...    0.0028430793

-------
TIMINGS
-------

Total SCF gradient time            ...        0.346 sec

One electron gradient       ....       0.009 sec  (  2.7%)
RI-J Coulomb gradient       ....       0.061 sec  ( 17.7%)
XC gradient                 ....       0.122 sec  ( 35.3%)

Maximum memory used throughout the entire SCFGRAD-calculation: 25.4 MB
------------------------------------------------------------------------------
                         ORCA GEOMETRY RELAXATION STEP
------------------------------------------------------------------------------

Reading the OPT-File                    .... done
Getting information on internals        .... done
Copying old internal coords+grads       .... done
Making the new internal coordinates     .... (new redundants).... done
Validating the new internal coordinates .... (new redundants).... done
Calculating the B-matrix                .... done
Calculating the G,G- and P matrices     .... done
Transforming gradient to internals      .... done
Projecting the internal gradient        .... done
Number of atoms                         ....  11
Number of internal coordinates          ....  46
Current Energy                          ....  -119.092105315 Eh
Current gradient norm                   ....     0.005206731 Eh/bohr
Maximum allowed component of the step   ....  0.300
Current trust radius                    ....  0.300
Updating the Hessian (BFGS)             .... done
Forming the augmented Hessian           .... done
Diagonalizing the augmented Hessian     .... done
Last element of RFO vector              ....  0.999853260
Lowest eigenvalues of augmented Hessian:
 -0.000083521  0.013004235  0.013052885  0.077632197  0.089167671
Length of the computed step             ....  0.017133162
The final length of the internal step   ....  0.017133162
Converting the step to cartesian space:
 Initial RMS(Int)=    0.0025261469
Transforming coordinates:
 Iter   0:  RMS(Cart)=    0.0047486031 RMS(Int)=    0.0025268321
 Iter   1:  RMS(Cart)=    0.0000078343 RMS(Int)=    0.0000054815
 Iter   2:  RMS(Cart)=    0.0000000230 RMS(Int)=    0.0000000200
done
Storing new coordinates                 .... done

                                .--------------------.
          ----------------------|Geometry convergence|-------------------------
          Item                value                   Tolerance       Converged
          ---------------------------------------------------------------------
          Energy change      -0.0028207176            0.0000050000      NO
          RMS gradient        0.0007528265            0.0001000000      NO
          MAX gradient        0.0028902943            0.0003000000      NO
          RMS step            0.0025261469            0.0020000000      NO
          MAX step            0.0080121087            0.0040000000      NO
          ........................................................
          Max(Bonds)      0.0042      Max(Angles)    0.24
          Max(Dihed)        0.14      Max(Improp)    0.00
          ---------------------------------------------------------------------

The optimization has not yet converged - more geometry cycles are needed


    ---------------------------------------------------------------------------
                         Redundant Internal Coordinates
                            (Angstroem and degrees)

        Definition                    Value    dE/dq     Step     New-Value
    ----------------------------------------------------------------------------
     1. B(C   1,C   0)                1.5231 -0.002789  0.0041    1.5272   
     2. B(H   2,C   0)                1.0961  0.000791 -0.0015    1.0945   
     3. B(H   3,C   0)                1.0969  0.000562 -0.0011    1.0958   
     4. B(H   4,C   0)                1.0970  0.000591 -0.0012    1.0958   
     5. B(C   5,C   1)                1.5229 -0.002890  0.0042    1.5272   
     6. B(H   6,C   1)                1.0995  0.001004 -0.0019    1.0975   
     7. B(H   7,C   1)                1.0995  0.001030 -0.0020    1.0975   
     8. B(H   8,C   5)                1.0962  0.000836 -0.0016    1.0946   
     9. B(H   9,C   5)                1.0969  0.000562 -0.0011    1.0958   
    10. B(H  10,C   5)                1.0969  0.000566 -0.0011    1.0958   
    11. A(H   2,C   0,H   4)          108.02  0.000666   -0.12    107.90   
    12. A(C   1,C   0,H   2)          111.26 -0.001034    0.23    111.49   
    13. A(H   3,C   0,H   4)          107.73  0.000480   -0.14    107.59   
    14. A(H   2,C   0,H   3)          108.01  0.000644   -0.12    107.90   
    15. A(C   1,C   0,H   3)          110.85 -0.000310    0.06    110.91   
    16. A(C   1,C   0,H   4)          110.83 -0.000353    0.07    110.90   
    17. A(C   0,C   1,C   5)          112.58  0.000380   -0.03    112.55   
    18. A(H   6,C   1,H   7)          106.36  0.000308   -0.15    106.21   
    19. A(C   5,C   1,H   7)          109.42 -0.000169    0.04    109.46   
    20. A(C   0,C   1,H   7)          109.42 -0.000182    0.05    109.47   
    21. A(C   5,C   1,H   6)          109.43 -0.000160    0.04    109.47   
    22. A(C   0,C   1,H   6)          109.43 -0.000180    0.04    109.48   
    23. A(H   8,C   5,H   9)          107.96  0.000615   -0.10    107.86   
    24. A(C   1,C   5,H   9)          110.87 -0.000323    0.06    110.93   
    25. A(C   1,C   5,H   8)          111.25 -0.001018    0.24    111.49   
    26. A(H   9,C   5,H  10)          107.79  0.000530   -0.17    107.62   
    27. A(H   8,C   5,H  10)          107.96  0.000615   -0.10    107.86   
    28. A(C   1,C   5,H  10)          110.87 -0.000326    0.06    110.93   
    29. D(H   7,C   1,C   0,H   2)     58.09  0.000085   -0.07     58.02   
    30. D(H   6,C   1,C   0,H   2)    -58.08 -0.000080    0.06    -58.02   
    31. D(H   7,C   1,C   0,H   4)    -62.12  0.000169   -0.11    -62.23   
    32. D(H   7,C   1,C   0,H   3)    178.30  0.000001   -0.02    178.28   
    33. D(C   5,C   1,C   0,H   4)     59.78  0.000080   -0.04     59.74   
    34. D(H   6,C   1,C   0,H   4)   -178.29  0.000004    0.02   -178.28   
    35. D(C   5,C   1,C   0,H   3)    -59.79 -0.000089    0.05    -59.74   
    36. D(C   5,C   1,C   0,H   2)    179.99 -0.000004    0.00    180.00   
    37. D(H   6,C   1,C   0,H   3)     62.13 -0.000165    0.11     62.24   
    38. D(H   9,C   5,C   1,H   6)    178.23 -0.000029    0.00    178.23   
    39. D(H   9,C   5,C   1,C   0)    -59.85 -0.000117    0.07    -59.78   
    40. D(H   8,C   5,C   1,H   7)    -58.10 -0.000094    0.07    -58.03   
    41. D(H   8,C   5,C   1,H   6)     58.07  0.000090   -0.06     58.01   
    42. D(H   9,C   5,C   1,H   7)     62.06 -0.000214    0.14     62.20   
    43. D(H   8,C   5,C   1,C   0)    180.00  0.000002   -0.00    180.00   
    44. D(H  10,C   5,C   1,H   7)   -178.25  0.000026    0.00   -178.25   
    45. D(H  10,C   5,C   1,H   6)    -62.08  0.000210   -0.13    -62.22   
    46. D(H  10,C   5,C   1,C   0)     59.84  0.000123   -0.07     59.77   
    ----------------------------------------------------------------------------

         *************************************************************
         *                GEOMETRY OPTIMIZATION CYCLE   3            *
         *************************************************************
---------------------------------
CARTESIAN COORDINATES (ANGSTROEM)
---------------------------------
  C     -5.483641    1.919109   -0.071776
  C     -3.956515    1.908912   -0.071788
  H     -5.877814    2.940213   -0.071628
  H     -5.878102    1.406014   -0.956043
  H     -5.877914    1.405752    0.812403
  C     -3.380190    0.494669   -0.071932
  H     -3.586908    2.454616   -0.949366
  H     -3.587025    2.454290    0.806031
  H     -2.285653    0.507812   -0.071988
  H     -3.709577   -0.062256    0.812445
  H     -3.709663   -0.062130   -0.956358

----------------------------
CARTESIAN COORDINATES (A.U.)
----------------------------
  NO LB      ZA    FRAG     MASS         X           Y           Z
   0 C     6.0000    0    12.011  -10.362579    3.626590   -0.135637
   1 C     6.0000    0    12.011   -7.476729    3.607320   -0.135660
   2 H     1.0000    0     1.008  -11.107459    5.556197   -0.135358
   3 H     1.0000    0     1.008  -11.108003    2.656981   -1.806659
   4 H     1.0000    0     1.008  -11.107647    2.656486    1.535219
   5 C     6.0000    0    12.011   -6.387634    0.934789   -0.135931
   6 H     1.0000    0     1.008   -6.778274    4.638552   -1.794041
   7 H     1.0000    0     1.008   -6.778494    4.637936    1.523178
   8 H     1.0000    0     1.008   -4.319257    0.959626   -0.136038
   9 H     1.0000    0     1.008   -7.010084   -0.117646    1.535299
  10 H     1.0000    0     1.008   -7.010247   -0.117409   -1.807255

--------------------------------
INTERNAL COORDINATES (ANGSTROEM)
--------------------------------
 C      0   0   0     0.000000000000     0.00000000     0.00000000
 C      1   0   0     1.527160307887     0.00000000     0.00000000
 H      1   2   0     1.094544082904   111.49048779     0.00000000
[...]
                                                                              
                      - O R C A' S   B I G   F R I E N D -                    
                                      &                                       
                       - I N T E G R A L  F E E D E R -                       
                                                                              
 v1 FN, 2020, v2 2021                                                         
------------------------------------------------------------------------------


Reading SHARK input file propane_charge.SHARKINP.tmp ... ok
----------------------
SHARK INTEGRAL PACKAGE
----------------------

Number of atoms                             ...     11
Number of basis functions                   ...     58
Number of shells                            ...     34
Maximum angular momentum                    ...      2
Integral batch strategy                     ... SHARK/LIBINT Hybrid
RI-J (if used) integral strategy            ... SPLIT-RIJ (Revised 2003 algorithm where possible)
Printlevel                                  ...      1
Contraction scheme used                     ... SEGMENTED contraction
Coulomb Range Separation                    ... NOT USED
Exchange Range Separation                   ... NOT USED
Finite Nucleus Model                        ... NOT USED
Auxiliary Coulomb fitting basis             ... NOT available
Auxiliary J/K fitting basis                 ... NOT available
Auxiliary Correlation fitting basis         ... NOT available
Auxiliary 'external' fitting basis          ... NOT available
Integral threshold                          ...     1.000000e-10
Primitive cut-off                           ...     1.000000e-11
Primitive pair pre-selection threshold      ...     1.000000e-11

Calculating pre-screening integrals         ... done (  0.0 sec) Dimension = 34
Organizing shell pair data                  ... done (  0.0 sec)
Shell pair information
Total number of shell pairs                 ...       595
Shell pairs after pre-screening             ...       594
Total number of primitive shell pairs       ...      3090
Primitive shell pairs kept                  ...      2443
          la=0 lb=0:    324 shell pairs
          la=1 lb=0:    150 shell pairs
          la=1 lb=1:     21 shell pairs
          la=2 lb=0:     75 shell pairs
          la=2 lb=1:     18 shell pairs
          la=2 lb=2:      6 shell pairs

Calculating one electron integrals          ... done (  0.0 sec)
Calculating Nuclear repulsion               ... done (  0.0 sec) ENN=     82.549796984425 Eh

SHARK setup successfully completed in   0.1 seconds

Maximum memory used throughout the entire GTOINT-calculation: 7.5 MB


           ************************************************************
           *        Program running with 12 parallel MPI-processes    *
           *              working on a common directory               *
           ************************************************************
-------------------------------------------------------------------------------
                                 ORCA SCF
-------------------------------------------------------------------------------

------------
SCF SETTINGS
------------
Hamiltonian:
 Ab initio Hamiltonian  Method          .... Hartree-Fock(GTOs)


General Settings:
 Integral files         IntName         .... propane_charge
 Hartree-Fock type      HFTyp           .... RHF
 Total Charge           Charge          ....    0
 Multiplicity           Mult            ....    1
 Number of Electrons    NEL             ....   26
 Basis Dimension        Dim             ....   58
 Nuclear Repulsion      ENuc            ....     82.5497969844 Eh

Convergence Acceleration:
 DIIS                   CNVDIIS         .... on
   Start iteration      DIISMaxIt       ....    12
   Startup error        DIISStart       ....  0.200000
   # of expansion vecs  DIISMaxEq       ....     5
   Bias factor          DIISBfac        ....   1.050
   Max. coefficient     DIISMaxC        ....  10.000
 Trust-Rad. Augm. Hess. CNVTRAH         .... auto
   Auto Start mean grad. ratio tolernc. ....  1.125000
   Auto Start start iteration           ....     1
   Auto Start num. interpolation iter.  ....    10
   Max. Number of Micro iterations      ....    16
   Max. Number of Macro iterations      .... Maxiter - #DIIS iter
   Number of Davidson start vectors     ....     2
   Converg. threshold I  (grad. norm)   ....   5.000e-05
   Converg. threshold II (energy diff.) ....   1.000e-06
   Grad. Scal. Fac. for Micro threshold ....   0.100
   Minimum threshold for Micro iter.    ....   0.010
   NR start threshold (gradient norm)   ....   0.001
   Initial trust radius                 ....   0.400
   Minimum AH scaling param. (alpha)    ....   1.000
   Maximum AH scaling param. (alpha)    .... 1000.000
   Orbital update algorithm             .... Taylor
   White noise on init. David. guess    .... on
   Maximum white noise                  ....   0.010
   Quad. conv. algorithm                .... NR
 SOSCF                  CNVSOSCF        .... on
   Start iteration      SOSCFMaxIt      ....   150
   Startup grad/error   SOSCFStart      ....  0.003300
 Level Shifting         CNVShift        .... on
   Level shift para.    LevelShift      ....    0.2500
   Turn off err/grad.   ShiftErr        ....    0.0010
 Zerner damping         CNVZerner       .... off
 Static damping         CNVDamp         .... on
   Fraction old density DampFac         ....    0.7000
   Max. Damping (<1)    DampMax         ....    0.9800
   Min. Damping (>=0)   DampMin         ....    0.0000
   Turn off err/grad.   DampErr         ....    0.1000
 Fernandez-Rico         CNVRico         .... off

SCF Procedure:
 Maximum # iterations   MaxIter         ....   125
 SCF integral mode      SCFMode         .... Direct
   Integral package                     .... SHARK and LIBINT hybrid scheme
 Reset frequency        DirectResetFreq ....    20
 Integral Threshold     Thresh          ....  1.000e-10 Eh
 Primitive CutOff       TCut            ....  1.000e-11 Eh

Convergence Tolerance:
 Convergence Check Mode ConvCheckMode   .... Total+1el-Energy
 Convergence forced     ConvForced      .... 0
 Energy Change          TolE            ....  1.000e-06 Eh
 1-El. energy change                    ....  1.000e-03 Eh
 Orbital Gradient       TolG            ....  5.000e-05
 Orbital Rotation angle TolX            ....  5.000e-05
 DIIS Error             TolErr          ....  1.000e-06


Diagonalization of the overlap matrix:
Smallest eigenvalue                        ... 6.876e-03
Time for diagonalization                   ...    0.001 sec
Threshold for overlap eigenvalues          ... 1.000e-08
Number of eigenvalues below threshold      ... 0
Time for construction of square roots      ...    0.005 sec
Total time needed                          ...    0.007 sec

---------------------
INITIAL GUESS: MOREAD
---------------------
Guess MOs are being read from file: propane_nbo.gbw
Input Geometry matches current geometry (good)
Atom 0: N(Shells)= 6 and 11 - projection required
Input basis set needs projection
NBasis(read)= 141
NBasis(calc)= 58
Basis set overlap was calculated
Using GuessMode=FMatrix for the initial guess
C*T matrix was formed
Effective Fockian was calculated
Effective Fockian was diagonalized
Initial density was built
                      ------------------
                      INITIAL GUESS DONE (   0.0 sec)
                      ------------------
Hirshfeld charges requested but no grid available - making one
-------------------
DFT GRID GENERATION
-------------------

General Integration Accuracy     IntAcc      ... 4.388
Radial Grid Type                 RadialGrid  ... OptM3 with GC (2021)
Angular Grid (max. ang.)         AngularGrid ... 4 (Lebedev-302)
Angular grid pruning method      GridPruning ... 4 (adaptive)
Weight generation scheme         WeightScheme... Becke
Basis function cutoff            BFCut       ... 1.0000e-10
Integration weight cutoff        WCut        ... 1.0000e-14
Angular grids for H and He will be reduced by one unit
Partially contracted basis set               ... off
Rotationally invariant grid construction     ... off

Total number of grid points                  ...    44017
Total number of batches                      ...      696
Average number of points per batch           ...       63
Average number of grid points per atom       ...     4002
Time for grid setup =    0.224 sec

--------------
SCF ITERATIONS
--------------
ITER       Energy         Delta-E        Max-DP      RMS-DP      [F,P]     Damp
               ***  Starting incremental Fock matrix formation  ***
  0   -118.2505322891   0.000000000000 0.00950932  0.00101301  0.0500551 0.7000
  1   -118.2540336900  -0.003501400894 0.00799825  0.00085011  0.0368036 0.7000
                               ***Turning on DIIS***
  2   -118.2565181756  -0.002484485600 0.02097642  0.00214499  0.0268861 0.0000
  3   -118.2727907241  -0.016272548542 0.00495526  0.00051495  0.0062682 0.0000
                      *** Initiating the SOSCF procedure ***
                           *** Shutting down DIIS ***
                      *** Re-Reading the Fockian *** 
                      *** Removing any level shift *** 
ITER      Energy       Delta-E        Grad      Rot      Max-DP    RMS-DP
  4   -118.27538540  -0.0025946710  0.001159  0.001159  0.002007  0.000162
               *** Restarting incremental Fock matrix formation ***
  5   -118.26273130   0.0126540951  0.000247  0.000288  0.000660  0.000058
  6   -118.26273270  -0.0000013960  0.000089  0.000161  0.000302  0.000025
                 **** Energy Check signals convergence ****
              ***Rediagonalizing the Fockian in SOSCF/NRSCF***

               *****************************************************
               *                     SUCCESS                       *
               *           SCF CONVERGED AFTER   7 CYCLES          *
               *****************************************************


----------------
TOTAL SCF ENERGY
----------------

Total Energy       :         -118.26273282 Eh           -3218.09256 eV

Components:
Nuclear Repulsion  :           82.54979698 Eh            2246.29418 eV
Electronic Energy  :         -200.81252981 Eh           -5464.38674 eV
One Electron Energy:         -321.38133231 Eh           -8745.23065 eV
Two Electron Energy:          120.56880250 Eh            3280.84391 eV

Virial components:
Potential Energy   :         -236.58813235 Eh           -6437.89038 eV
Kinetic Energy     :          118.32539952 Eh            3219.79781 eV
Virial Ratio       :            1.99947039


---------------
SCF CONVERGENCE
---------------

  Last Energy change         ...   -1.2687e-07  Tolerance :   1.0000e-06
  Last MAX-Density change    ...    3.4632e-05  Tolerance :   1.0000e-05
  Last RMS-Density change    ...    3.6074e-06  Tolerance :   1.0000e-06
  Last Orbital Gradient      ...    2.4177e-05  Tolerance :   5.0000e-05
  Last Orbital Rotation      ...    2.7370e-05  Tolerance :   5.0000e-05

             **** THE GBW FILE WAS UPDATED (propane_charge.gbw) ****
             **** DENSITY propane_charge.scfp WAS UPDATED ****
             **** ENERGY FILE WAS UPDATED (propane_charge.en.tmp) ****
             **** THE GBW FILE WAS UPDATED (propane_charge.gbw) ****
             **** DENSITY propane_charge.scfp WAS UPDATED ****
----------------
ORBITAL ENERGIES
----------------

  NO   OCC          E(Eh)            E(eV) 
   0   2.0000     -11.214988      -305.1754 
   1   2.0000     -11.206708      -304.9500 
   2   2.0000     -11.206669      -304.9490 
   3   2.0000      -1.052165       -28.6309 
   4   2.0000      -0.924740       -25.1635 
   5   2.0000      -0.799486       -21.7551 
   6   2.0000      -0.622938       -16.9510 
   7   2.0000      -0.596928       -16.2432 
   8   2.0000      -0.549582       -14.9549 
   9   2.0000      -0.530312       -14.4305 
  10   2.0000      -0.475283       -12.9331 
  11   2.0000      -0.474886       -12.9223 
  12   2.0000      -0.466742       -12.7007 
  13   0.0000       0.233169         6.3449 
  14   0.0000       0.295001         8.0274 
  15   0.0000       0.296902         8.0791 
  16   0.0000       0.297039         8.0828 
  17   0.0000       0.317073         8.6280 
  18   0.0000       0.341661         9.2971 
  19   0.0000       0.349250         9.5036 
  20   0.0000       0.353469         9.6184 
  21   0.0000       0.393272        10.7015 
  22   0.0000       0.442728        12.0472 
  23   0.0000       0.713731        19.4216 
  24   0.0000       0.714444        19.4410 
  25   0.0000       0.747076        20.3290 
  26   0.0000       0.763161        20.7667 
  27   0.0000       0.786705        21.4073 
  28   0.0000       0.938740        25.5444 
  29   0.0000       0.977979        26.6121 
  30   0.0000       0.978430        26.6244 
  31   0.0000       1.016740        27.6669 
  32   0.0000       1.144080        31.1320 
  33   0.0000       1.163066        31.6486 
  34   0.0000       1.173783        31.9403 
  35   0.0000       1.187409        32.3111 
  36   0.0000       1.206039        32.8180 
  37   0.0000       1.228274        33.4230 
  38   0.0000       1.250680        34.0327 
  39   0.0000       1.263315        34.3765 
  40   0.0000       1.266070        34.4515 
  41   0.0000       1.645811        44.7848 
  42   0.0000       1.737209        47.2719 
  43   0.0000       1.755436        47.7678 
  44   0.0000       1.819770        49.5185 
  45   0.0000       2.037158        55.4339 
  46   0.0000       2.205743        60.0213 
  47   0.0000       2.245008        61.0898 
  48   0.0000       2.291064        62.3430 
  49   0.0000       2.354461        64.0682 
  50   0.0000       2.417814        65.7921 
  51   0.0000       2.574153        70.0463 
  52   0.0000       2.598745        70.7154 
  53   0.0000       2.672701        72.7279 
  54   0.0000       2.731592        74.3304 
  55   0.0000       2.763158        75.1894 
  56   0.0000       2.926087        79.6229 
  57   0.0000       3.030161        82.4549 

------------------
HIRSHFELD ANALYSIS
------------------

Total integrated alpha density =     12.999978393
Total integrated beta density  =     12.999978393

  ATOM     CHARGE      SPIN    
   0 C   -0.052487    0.000000
   1 C   -0.017287    0.000000
   2 H    0.017356    0.000000
   3 H    0.015348    0.000000
   4 H    0.015348    0.000000
   5 C   -0.052490    0.000000
   6 H    0.013127    0.000000
   7 H    0.013127    0.000000
   8 H    0.017322    0.000000
   9 H    0.015340    0.000000
  10 H    0.015340    0.000000

  TOTAL   0.000043    0.000000

-------
TIMINGS
-------

Total SCF time: 0 days 0 hours 0 min 1 sec 

Total time                  ....       1.387 sec
Sum of individual times     ....       0.935 sec  ( 67.4%)

Fock matrix formation       ....       0.580 sec  ( 41.8%)
Diagonalization             ....       0.019 sec  (  1.4%)
Density matrix formation    ....       0.001 sec  (  0.1%)
Population analysis         ....       0.037 sec  (  2.7%)
Initial guess               ....       0.007 sec  (  0.5%)
Orbital Transformation      ....       0.000 sec  (  0.0%)
Orbital Orthonormalization  ....       0.000 sec  (  0.0%)
DIIS solution               ....       0.044 sec  (  3.2%)
SOSCF solution              ....       0.023 sec  (  1.6%)

Maximum memory used throughout the entire SCF-calculation: 224.7 MB

-------------------------   --------------------
FINAL SINGLE POINT ENERGY      -118.262732822889
-------------------------   --------------------


                            ***************************************
                            *     ORCA property calculations      *
                            ***************************************

                                    ---------------------
                                    Active property flags
                                    ---------------------
   (+) Dipole Moment


------------------------------------------------------------------------------
                       ORCA ELECTRIC PROPERTIES CALCULATION
------------------------------------------------------------------------------

Dipole Moment Calculation                       ... on
Quadrupole Moment Calculation                   ... off
Polarizability Calculation                      ... off
GBWName                                         ... propane_charge.gbw
Electron density                                ... propane_charge.scfp
The origin for moment calculation is the CENTER OF MASS  = (-8.089588,  2.702089 -0.135710)

-------------
DIPOLE MOMENT
-------------
                                X             Y             Z
Electronic contribution:      0.26400       0.39138       0.00005
Nuclear contribution   :     -0.24980      -0.37045      -0.00004
                        -----------------------------------------
Total Dipole Moment    :      0.01420       0.02093       0.00000
                        -----------------------------------------
Magnitude (a.u.)       :      0.02530
Magnitude (Debye)      :      0.06430



--------------------
Rotational spectrum 
--------------------
 
Rotational constants in cm-1:     0.985689     0.281040     0.248882 
Rotational constants in MHz : 29550.202525  8425.369674  7461.290181 

 Dipole components along the rotational axes: 
x,y,z [a.u.] :    -0.000021     0.025295     0.000000 
x,y,z [Debye]:    -0.000054     0.064296     0.000001 

 
------------------------------------------------------------------------------
                      ORCA CHELPG CHARGES GENERATION
------------------------------------------------------------------------------

GBW file                           ... propane_charge.gbw
Density                            ... propane_charge.scfp

Reading the GBW file               ... done
Reading the density                ... done

Grid spacing                       ...     0.300000
Point Cut-Off                      ...     2.800000
Van-der-Waals Radii                ...        COSMO
Total charge                       ...            0


Number of points X direction       ...           30
Number of points Y direction       ...           28
Number of points Z direction       ...           24
Maximum number of possible points  ...        20160
Final number of points             ...         8531


CHELPG Charges            
--------------------------------
  0   C   :      -0.344061
  1   C   :       0.337575
  2   H   :       0.066489
  3   H   :       0.079743
  4   H   :       0.079981
  5   C   :      -0.346250
  6   H   :      -0.050079
  7   H   :      -0.051365
  8   H   :       0.066733
  9   H   :       0.080777
 10   H   :       0.080457
--------------------------------
Total charge:    -0.000000
--------------------------------

CHELPG charges calculated...

Timings for individual parts in CHELPG calculation:
Grid generation                 ...        0.003 sec (=   0.000 min)
Potential calculation           ...        0.445 sec (=   0.007 min)
Fit to the potential            ...        0.037 sec (=   0.001 min)
------------------------------------------------------------------------------


Timings for individual modules:

Sum of individual times         ...        3.004 sec (=   0.050 min)
GTO integral calculation        ...        0.374 sec (=   0.006 min)  12.5 %
SCF iterations                  ...        1.690 sec (=   0.028 min)  56.3 %
CHELPG charge generation        ...        0.939 sec (=   0.016 min)  31.3 %
================================================================================

----- Orbital basis set information -----
Your calculation utilizes the basis: def2-SVP
   F. Weigend and R. Ahlrichs, Phys. Chem. Chem. Phys. 7, 3297 (2005).

                             ****ORCA TERMINATED NORMALLY****
TOTAL RUN TIME: 0 days 0 hours 1 minutes 27 seconds 762 msec
