$hessian                                                                        
        0.6257926956   0.3194451826   0.0319424075  -0.0889541087  -0.0232980038
       -0.0037447940  -0.0017516244  -0.0013403781  -0.0001835439  -0.0101628097
        0.0057046822  -0.0002155322  -0.5075678086  -0.2723096157  -0.0255819435
        0.0001458556  -0.0003133961   0.0001920790   0.0001374249  -0.0003150217
       -0.0002099779  -0.0013905037   0.0010744828   0.0000471650  -0.0022985877
       -0.0014418036   0.0004059883   0.0018497266   0.0010794790   0.0000889618
       -0.0023285098  -0.0013476008  -0.0007485981  -0.0134717500  -0.0269380067
       -0.0019922119
        0.3194451826   0.2693864094   0.0202846245  -0.0048149664   0.0141472019
        0.0001867466   0.0033190249  -0.0004157349   0.0000960855  -0.0009683603
        0.0006169113  -0.0003533436  -0.2737099011  -0.2538048870  -0.0169925932
       -0.0000237871   0.0015673049   0.0005750950  -0.0000112102   0.0016064997
       -0.0004452321  -0.0002625293   0.0017184581   0.0001337746   0.0000399168
        0.0001126775   0.0003631565   0.0012439546   0.0009864499   0.0000609927
       -0.0001387270   0.0000912425  -0.0003959557  -0.0441185975  -0.0360125333
       -0.0035133508
        0.0319424075   0.0202846245   0.0274812552  -0.0030344192  -0.0004563071
        0.0095946932   0.0001308210   0.0000291742  -0.0013746543  -0.0005845385
       -0.0001385109   0.0076110775  -0.0256871048  -0.0169525874  -0.0569676348
       -0.0006032523  -0.0001655541   0.0002486776   0.0005995492   0.0002591417
        0.0002493943  -0.0000171319   0.0001576193  -0.0013493471  -0.0019735621
       -0.0005151572   0.0002602162   0.0001223345   0.0000606682  -0.0001574392
        0.0018459427   0.0004307367   0.0003757073  -0.0027410462  -0.0029938478
        0.0140280541
       -0.0889541087  -0.0048149664  -0.0030344192   0.7303863514  -0.0352282452
        0.0184161771  -0.0802083450   0.0133095331  -0.0004441396  -0.1874940699
       -0.0708605007  -0.0082221294  -0.2972033341   0.0988718293  -0.0031798141
       -0.0041917185   0.0226360815   0.0041124826  -0.0038856970   0.0218789641
       -0.0026564083  -0.0002464720  -0.0296813996  -0.0012907349  -0.0335041597
       -0.0154505659   0.0082464140   0.0042657794  -0.0018278636   0.0000968760
       -0.0312747755  -0.0137884848  -0.0124575064  -0.0076894503   0.0149556182
        0.0004132021
       -0.0232980038   0.0141472019  -0.0004563071  -0.0352282452   0.5934806286
        0.0221546913   0.0189136473  -0.2218877571  -0.0067460757  -0.0735997444
       -0.1239259424  -0.0062381798   0.1005648669  -0.1310650813  -0.0020430943
        0.0089926129  -0.0243220049  -0.0108734464   0.0086846321  -0.0272053204
        0.0087112666  -0.0051880323  -0.0235175865  -0.0011648380  -0.0021526584
        0.0018053111   0.0039092391  -0.0253731522  -0.0271605039  -0.0020570458
       -0.0010120729   0.0028217988  -0.0043849499   0.0286961500  -0.0331707439
       -0.0008112600
       -0.0037447940   0.0001867466   0.0095946932   0.0184161771   0.0221546913
        0.0932681498   0.0000072541  -0.0071985519  -0.0524038082  -0.0082465409
       -0.0060300453  -0.0470134473  -0.0035924214  -0.0020547978  -0.0239954825
        0.0032508010  -0.0253467123   0.0025926460  -0.0029788470   0.0238888628
        0.0051502834  -0.0002841158  -0.0017936820   0.0003964933   0.0186749083
        0.0117808668   0.0058354577  -0.0006308059  -0.0011033076   0.0002670060
       -0.0217556414  -0.0132504205   0.0023676119   0.0008840260  -0.0012336500
        0.0039403967
       -0.0017516244   0.0033190249   0.0001308210  -0.0802083450   0.0189136473
        0.0000072541   0.5405495174   0.0073426543   0.0016969924   0.0008110778
       -0.0250408897  -0.0008927722  -0.0046937142   0.0290897954   0.0012308091
       -0.1049001401   0.0245337129   0.0964187167  -0.0964493829   0.0302913014
       -0.0896935202  -0.2453043737  -0.0860102559  -0.0082097303   0.0003075129
       -0.0010471937  -0.0005033781  -0.0041844338  -0.0045294470  -0.0003916737
        0.0002597310  -0.0009939339   0.0003596031  -0.0044358252   0.0041315841
       -0.0001531220
       -0.0013403781  -0.0004157349   0.0000291742   0.0133095331  -0.2218877571
       -0.0071985519   0.0073426543   0.4520351925  -0.0013577651   0.0012440509
       -0.0209264871  -0.0006241094   0.0139172963  -0.0225802107  -0.0004446429
        0.0249475515  -0.0494331937  -0.0394672629   0.0308993734  -0.0574153189
        0.0530328920  -0.0919006788  -0.0791792307  -0.0035864832   0.0009956850
        0.0012669392  -0.0001398549  -0.0025794071  -0.0022948374  -0.0002368082
        0.0010123258   0.0013937912   0.0003113264   0.0021519937  -0.0005631524
       -0.0003179140
       -0.0001835439   0.0000960855  -0.0013746543  -0.0004441396  -0.0067460757
       -0.0524038082   0.0016969924  -0.0013577651   0.4917430539   0.0002424720
       -0.0015610807  -0.0042617221   0.0008461724  -0.0000731976  -0.0036388046
        0.0969311948  -0.0404215356  -0.1971190105  -0.0901586164   0.0539151940
       -0.1977252575  -0.0084813095  -0.0034401128  -0.0448021233   0.0006721211
        0.0014321230   0.0007045435  -0.0002253075  -0.0001881987   0.0007931750
       -0.0006544617  -0.0014186939   0.0005314800  -0.0002415741  -0.0002367424
        0.0075531281
       -0.0101628097  -0.0009683603  -0.0005845385  -0.1874940699  -0.0735997444
       -0.0082465409   0.0008110778   0.0012440509   0.0002424720   0.4801000391
       -0.0322300557  -0.0019832255  -0.0252010790  -0.0111965709  -0.0010551828
        0.0009072769   0.0016456861   0.0000230378   0.0008308670   0.0015036580
        0.0001683552  -0.0002317923   0.0012191105   0.0000381666  -0.1084553319
        0.0275875954   0.0989398077  -0.0584213362   0.0579147363   0.0011005477
       -0.0916690181   0.0294809522  -0.0885098348  -0.0010138237  -0.0026010582
       -0.0001330646
        0.0057046822   0.0006169113  -0.0001385109  -0.0708605007  -0.1239259424
       -0.0060300453  -0.0250408897  -0.0209264871  -0.0015610807  -0.0322300557
        0.5178526521   0.0003303668   0.0014351116   0.0055505569   0.0007317515
       -0.0004942240   0.0005356914   0.0004421579  -0.0005471677   0.0004892012
       -0.0004788565  -0.0002725125  -0.0069182937  -0.0003505518   0.0272706049
       -0.0524521505  -0.0371940234   0.0617554107  -0.2647621002  -0.0038703609
        0.0294109576  -0.0574673351   0.0479624072   0.0038685833   0.0014072961
        0.0001567461
       -0.0002155322  -0.0003533436   0.0076110775  -0.0082221294  -0.0062381798
       -0.0470134473  -0.0008927722  -0.0006241094  -0.0042617221  -0.0019832255
        0.0003303668   0.4851210495  -0.0002860465   0.0004102468  -0.0090328081
       -0.0007730798  -0.0015879434   0.0004824884   0.0007734555   0.0016690764
        0.0006816888  -0.0000094012  -0.0002123907   0.0005441828   0.1002109289
       -0.0356524181  -0.1891785243   0.0012389819  -0.0040625528  -0.0443014293
       -0.0899913806   0.0463096664  -0.2000422896   0.0001502011   0.0000115815
       -0.0006102662
       -0.5075678086  -0.2737099011  -0.0256871048  -0.2972033341   0.1005648669
       -0.0035924214  -0.0046937142   0.0139172963   0.0008461724  -0.0252010790
        0.0014351116  -0.0002860465   0.8705008194   0.1569349008   0.0282219776
        0.0008052850  -0.0028082883  -0.0016054368   0.0007620863  -0.0031512883
        0.0014400868   0.0033769425  -0.0037508196  -0.0001366633  -0.0003301931
        0.0002973741  -0.0018096729  -0.0009371942   0.0013621981   0.0000453229
        0.0000886029   0.0002544317   0.0020275353  -0.0396004129   0.0086541178
        0.0005362507
       -0.2723096157  -0.2538048870  -0.0169525874   0.0988718293  -0.1310650813
       -0.0020547978   0.0290897954  -0.0225802107  -0.0000731976  -0.0111965709
        0.0055505569   0.0004102468   0.1569349008   0.6251852393   0.0260474484
        0.0010751719  -0.0045709271  -0.0000177583   0.0012214759  -0.0048948838
       -0.0002485055   0.0018019353  -0.0025379362  -0.0001214784  -0.0040735906
       -0.0014559775   0.0001897507  -0.0046399844   0.0001003604  -0.0001241780
       -0.0035267802  -0.0012632318  -0.0004966185   0.0067514331  -0.2086630212
       -0.0065583244
       -0.0255819435  -0.0169925932  -0.0569676348  -0.0031798141  -0.0020430943
       -0.0239954825   0.0012308091  -0.0004446429  -0.0036388046  -0.0010551828
        0.0007317515  -0.0090328081   0.0282219776   0.0260474484   0.1445515523
        0.0018828776  -0.0035575368  -0.0013831750  -0.0016858958   0.0030965599
       -0.0011319932   0.0001363600  -0.0002627363   0.0011834945   0.0046862132
        0.0013942672  -0.0011501194  -0.0002383510   0.0000346363   0.0005103081
       -0.0049583215  -0.0014457542  -0.0015367693   0.0005412712  -0.0065583057
       -0.0474085680
        0.0001458556  -0.0000237871  -0.0006032523  -0.0041917185   0.0089926129
        0.0032508010  -0.1049001401   0.0249475515   0.0969311948   0.0009072769
       -0.0004942240  -0.0007730798   0.0008052850   0.0010751719   0.0018828776
        0.1185020334  -0.0364728625  -0.1141333137   0.0070432185  -0.0026396467
       -0.0121306878  -0.0182104005   0.0045261919   0.0255911374   0.0001138259
        0.0001639118   0.0001569944  -0.0000432385  -0.0001239877  -0.0000051470
       -0.0000986607   0.0000165075   0.0000173268  -0.0000733370   0.0000325607
       -0.0001848513
       -0.0003133961   0.0015673049  -0.0001655541   0.0226360815  -0.0243220049
       -0.0253467123   0.0245337129  -0.0494331937  -0.0404215356   0.0016456861
        0.0005356914  -0.0015879434  -0.0028082883  -0.0045709271  -0.0035575368
       -0.0364728625   0.0697695196   0.0525613577  -0.0039591079   0.0033255358
        0.0062047901  -0.0059575669   0.0033711546   0.0096709563  -0.0002323006
        0.0000565989   0.0005774268   0.0001503529   0.0005585058   0.0002098028
       -0.0000710724  -0.0001038094   0.0001155718   0.0008487612  -0.0007543759
        0.0017393764
        0.0001920790   0.0005750950   0.0002486776   0.0041124826  -0.0108734464
        0.0025926460   0.0964187167  -0.0394672629  -0.1971190105   0.0000230378
        0.0004421579   0.0004824884  -0.0016054368  -0.0000177583  -0.0013831750
       -0.1141333137   0.0525613577   0.2254797091   0.0135332982  -0.0035431568
       -0.0295909935   0.0019536632   0.0003593628  -0.0006041383  -0.0003746699
       -0.0005157049   0.0001861764  -0.0000824024   0.0003216947   0.0000596601
        0.0000812122   0.0000933670  -0.0005393531  -0.0001186667   0.0000642941
        0.0001873128
        0.0001374249  -0.0000112102   0.0005995492  -0.0038856970   0.0086846321
       -0.0029788470  -0.0964493829   0.0308993734  -0.0901586164   0.0008308670
       -0.0005471677   0.0007734555   0.0007620863   0.0012214759  -0.0016858958
        0.0070432185  -0.0039591079   0.0135332982   0.1085415518  -0.0431168849
        0.1056607295  -0.0168807276   0.0067411007  -0.0258141843  -0.0000956429
       -0.0000004778   0.0000311346  -0.0000497469  -0.0001099037   0.0000003055
        0.0001300372   0.0001750279  -0.0001346618  -0.0000839884   0.0000231422
        0.0001737328
       -0.0003150217   0.0016064997   0.0002591417   0.0218789641  -0.0272053204
        0.0238888628   0.0302913014  -0.0574153189   0.0539151940   0.0015036580
        0.0004892012   0.0016690764  -0.0031512883  -0.0048948838   0.0030965599
       -0.0026396467   0.0033255358  -0.0035431568  -0.0431168849   0.0799624517
       -0.0672168219  -0.0053010716   0.0041891111  -0.0094668173  -0.0000506091
       -0.0001068217  -0.0000541904   0.0001469981   0.0006025318  -0.0001680648
       -0.0001899820   0.0000463973  -0.0006248055   0.0009435828  -0.0005993840
       -0.0017549779
       -0.0002099779  -0.0004452321   0.0002493943  -0.0026564083   0.0087112666
        0.0051502834  -0.0896935202   0.0530328920  -0.1977252575   0.0001683552
       -0.0004788565   0.0006816888   0.0014400868  -0.0002485055  -0.0011319932
       -0.0121306878   0.0062047901  -0.0295909935   0.1056607295  -0.0672168219
        0.2253897533  -0.0031418112   0.0003577294  -0.0026998307  -0.0000423946
       -0.0000311401  -0.0005811973   0.0000891783  -0.0002827759   0.0000174596
        0.0003340713   0.0005146677   0.0001924069   0.0001823791  -0.0001180140
        0.0000482858
       -0.0013905037  -0.0002625293  -0.0000171319  -0.0002464720  -0.0051880323
       -0.0002841158  -0.2453043737  -0.0919006788  -0.0084813095  -0.0002317923
       -0.0002725125  -0.0000094012   0.0033769425   0.0018019353   0.0001363600
       -0.0182104005  -0.0059575669   0.0019536632  -0.0168807276  -0.0053010716
       -0.0031418112   0.2787567489   0.1070337553   0.0098388371   0.0002522446
        0.0001387373  -0.0002069159   0.0000420753   0.0003519142   0.0000071356
        0.0002229597   0.0001143599   0.0002360908  -0.0003867012  -0.0005583107
       -0.0000314011
        0.0010744828   0.0017184581   0.0001576193  -0.0296813996  -0.0235175865
       -0.0017936820  -0.0860102559  -0.0791792307  -0.0034401128   0.0012191105
       -0.0069182937  -0.0002123907  -0.0037508196  -0.0025379362  -0.0002627363
        0.0045261919   0.0033711546   0.0003593628   0.0067411007   0.0041891111
        0.0003577294   0.1070337553   0.1022222878   0.0048673752   0.0005198215
        0.0002431786  -0.0001301298  -0.0016868280  -0.0014017839  -0.0001358921
        0.0004819741   0.0002214349   0.0001843536  -0.0004671337   0.0015892059
        0.0000485031
        0.0000471650   0.0001337746  -0.0013493471  -0.0012907349  -0.0011648380
        0.0003964933  -0.0082097303  -0.0035864832  -0.0448021233   0.0000381666
       -0.0003505518   0.0005441828  -0.0001366633  -0.0001214784   0.0011834945
        0.0255911374   0.0096709563  -0.0006041383  -0.0258141843  -0.0094668173
       -0.0026998307   0.0098388371   0.0048673752   0.0470620550  -0.0000794608
       -0.0001008521  -0.0000105819  -0.0000845818  -0.0000649312   0.0002076462
        0.0001273789   0.0001306979   0.0000424051  -0.0000273296   0.0000531479
        0.0000297443
       -0.0022985877   0.0000399168  -0.0019735621  -0.0335041597  -0.0021526584
        0.0186749083   0.0003075129   0.0009956850   0.0006721211  -0.1084553319
        0.0272706049   0.1002109289  -0.0003301931  -0.0040735906   0.0046862132
        0.0001138259  -0.0002323006  -0.0003746699  -0.0000956429  -0.0000506091
       -0.0000423946   0.0002522446   0.0005198215  -0.0000794608   0.1407989318
       -0.0250403990  -0.1203252721  -0.0053134981   0.0048140059   0.0088778949
        0.0080779378  -0.0018144689  -0.0103021353   0.0004469604  -0.0002760075
       -0.0000245715
       -0.0014418036   0.0001126775  -0.0005151572  -0.0154505659   0.0018053111
        0.0117808668  -0.0010471937   0.0012669392   0.0014321230   0.0275875954
       -0.0524521505  -0.0356524181   0.0002973741  -0.0014559775   0.0013942672
        0.0001639118   0.0000565989  -0.0005157049  -0.0000004778  -0.0001068217
       -0.0000311401   0.0001387373   0.0002431786  -0.0001008521  -0.0250403990
        0.0571595550   0.0403883487   0.0179469842  -0.0091106685  -0.0256441337
       -0.0031291288   0.0025103408   0.0077139455  -0.0000250339  -0.0000289829
       -0.0002501451
        0.0004059883   0.0003631565   0.0002602162   0.0082464140   0.0039092391
        0.0058354577  -0.0005033781  -0.0001398549   0.0007045435   0.0989398077
       -0.0371940234  -0.1891785243  -0.0018096729   0.0001897507  -0.0011501194
        0.0001569944   0.0005774268   0.0001861764   0.0000311346  -0.0000541904
       -0.0005811973  -0.0002069159  -0.0001301298  -0.0000105819  -0.1203252721
        0.0403883487   0.2160152453   0.0017493469  -0.0021069443  -0.0019314605
        0.0134666272  -0.0059420797  -0.0301613507  -0.0001510742   0.0001393006
        0.0000115951
        0.0018497266   0.0012439546   0.0001223345   0.0042657794  -0.0253731522
       -0.0006308059  -0.0041844338  -0.0025794071  -0.0002253075  -0.0584213362
        0.0617554107   0.0012389819  -0.0009371942  -0.0046399844  -0.0002383510
       -0.0000432385   0.0001503529  -0.0000824024  -0.0000497469   0.0001469981
        0.0000891783   0.0000420753  -0.0016868280  -0.0000845818  -0.0053134981
        0.0179469842   0.0017493469   0.0685802547  -0.0633669297  -0.0008573370
       -0.0044223868   0.0157588756  -0.0010525639  -0.0013660014   0.0006437253
       -0.0000284921
        0.0010794790   0.0009864499   0.0000606682  -0.0018278636  -0.0271605039
       -0.0011033076  -0.0045294470  -0.0022948374  -0.0001881987   0.0579147363
       -0.2647621002  -0.0040625528   0.0013621981   0.0001003604   0.0000346363
       -0.0001239877   0.0005585058   0.0003216947  -0.0001099037   0.0006025318
       -0.0002827759   0.0003519142  -0.0014017839  -0.0000649312   0.0048140059
       -0.0091106685  -0.0021069443  -0.0633669297   0.3125075950   0.0052954012
        0.0052344045  -0.0108713467   0.0020668832  -0.0007986063   0.0008457977
        0.0000294269
        0.0000889618   0.0000609927  -0.0001574392   0.0000968760  -0.0020570458
        0.0002670060  -0.0003916737  -0.0002368082   0.0007931750   0.0011005477
       -0.0038703609  -0.0443014293   0.0000453229  -0.0001241780   0.0005103081
       -0.0000051470   0.0002098028   0.0000596601   0.0000003055  -0.0001680648
        0.0000174596   0.0000071356  -0.0001358921   0.0002076462   0.0088778949
       -0.0256441337  -0.0019314605  -0.0008573370   0.0052954012   0.0457379335
       -0.0089106657   0.0266322449  -0.0011695886  -0.0000522211   0.0000380419
       -0.0000332709
       -0.0023285098  -0.0001387270   0.0018459427  -0.0312747755  -0.0010120729
       -0.0217556414   0.0002597310   0.0010123258  -0.0006544617  -0.0916690181
        0.0294109576  -0.0899913806   0.0000886029  -0.0035267802  -0.0049583215
       -0.0000986607  -0.0000710724   0.0000812122   0.0001300372  -0.0001899820
        0.0003340713   0.0002229597   0.0004819741   0.0001273789   0.0080779378
       -0.0031291288   0.0134666272  -0.0044223868   0.0052344045  -0.0089106657
        0.1205831319  -0.0278227596   0.1103988394   0.0004309504  -0.0002491392
        0.0000163994
       -0.0013476008   0.0000912425   0.0004307367  -0.0137884848   0.0028217988
       -0.0132504205  -0.0009939339   0.0013937912  -0.0014186939   0.0294809522
       -0.0574673351   0.0463096664   0.0002544317  -0.0012632318  -0.0014457542
        0.0000165075  -0.0001038094   0.0000933670   0.0001750279   0.0000463973
        0.0005146677   0.0001143599   0.0002214349   0.0001306979  -0.0018144689
        0.0025103408  -0.0059420797   0.0157588756  -0.0108713467   0.0266322449
       -0.0278227596   0.0626709129  -0.0523018993  -0.0000329066  -0.0000501955
        0.0002474670
       -0.0007485981  -0.0003959557   0.0003757073  -0.0124575064  -0.0043849499
        0.0023676119   0.0003596031   0.0003113264   0.0005314800  -0.0885098348
        0.0479624072  -0.2000422896   0.0020275353  -0.0004966185  -0.0015367693
        0.0000173268   0.0001155718  -0.0005393531  -0.0001346618  -0.0006248055
        0.0001924069   0.0002360908   0.0001843536   0.0000424051  -0.0103021353
        0.0077139455  -0.0301613507  -0.0010525639   0.0020668832  -0.0011695886
        0.1103988394  -0.0523018993   0.2299216921   0.0001659048  -0.0001502589
        0.0000180480
       -0.0134717500  -0.0441185975  -0.0027410462  -0.0076894503   0.0286961500
        0.0008840260  -0.0044358252   0.0021519937  -0.0002415741  -0.0010138237
        0.0038685833   0.0001502011  -0.0396004129   0.0067514331   0.0005412712
       -0.0000733370   0.0008487612  -0.0001186667  -0.0000839884   0.0009435828
        0.0001823791  -0.0003867012  -0.0004671337  -0.0000273296   0.0004469604
       -0.0000250339  -0.0001510742  -0.0013660014  -0.0007986063  -0.0000522211
        0.0004309504  -0.0000329066   0.0001659048   0.0672433793   0.0021817741
        0.0014081296
       -0.0269380067  -0.0360125333  -0.0029938478   0.0149556182  -0.0331707439
       -0.0012336500   0.0041315841  -0.0005631524  -0.0002367424  -0.0026010582
        0.0014072961   0.0000115815   0.0086541178  -0.2086630212  -0.0065583057
        0.0000325607  -0.0007543759   0.0000642941   0.0000231422  -0.0005993840
       -0.0001180140  -0.0005583107   0.0015892059   0.0000531479  -0.0002760075
       -0.0000289829   0.0001393006   0.0006437253   0.0008457977   0.0000380419
       -0.0002491392  -0.0000501955  -0.0001502589   0.0021817741   0.2760000894
        0.0109844527
       -0.0019922119  -0.0035133508   0.0140280541   0.0004132021  -0.0008112600
        0.0039403967  -0.0001531220  -0.0003179140   0.0075531281  -0.0001330646
        0.0001567461  -0.0006102662   0.0005362507  -0.0065583244  -0.0474085680
       -0.0001848513   0.0017393764   0.0001873128   0.0001737328  -0.0017549779
        0.0000482858  -0.0000314011   0.0000485031   0.0000297443  -0.0000245715
       -0.0002501451   0.0000115951  -0.0000284921   0.0000294269  -0.0000332709
        0.0000163994   0.0002474670   0.0000180480   0.0014081296   0.0109844527
        0.0222355400
