
                                 *****************
                                 * O   R   C   A *
                                 *****************

                                            #,                                       
                                            ###                                      
                                            ####                                     
                                            #####                                    
                                            ######                                   
                                           ########,                                 
                                     ,,################,,,,,                         
                               ,,#################################,,                 
                          ,,##########################################,,             
                       ,#########################################, ''#####,          
                    ,#############################################,,   '####,        
                  ,##################################################,,,,####,       
                ,###########''''           ''''###############################       
              ,#####''   ,,,,##########,,,,          '''####'''          '####       
            ,##' ,,,,###########################,,,                        '##       
           ' ,,###''''                  '''############,,,                           
         ,,##''                                '''############,,,,        ,,,,,,###''
      ,#''                                            '''#######################'''  
     '                                                          ''''####''''         
             ,#######,   #######,   ,#######,      ##                                
            ,#'     '#,  ##    ##  ,#'     '#,    #''#        ######   ,####,        
            ##       ##  ##   ,#'  ##            #'  '#       #        #'  '#        
            ##       ##  #######   ##           ,######,      #####,   #    #        
            '#,     ,#'  ##    ##  '#,     ,#' ,#      #,         ##   #,  ,#        
             '#######'   ##     ##  '#######'  #'      '#     #####' # '####'        



                  #######################################################
                  #                        -***-                        #
                  #          Department of theory and spectroscopy      #
                  #    Directorship and core code : Frank Neese         #
                  #        Max Planck Institute fuer Kohlenforschung    #
                  #                Kaiser Wilhelm Platz 1               #
                  #                 D-45470 Muelheim/Ruhr               #
                  #                      Germany                        #
                  #                                                     #
                  #                  All rights reserved                #
                  #                        -***-                        #
                  #######################################################


                         Program Version 5.0.1 -  RELEASE  -


 With contributions from (in alphabetic order):
   Daniel Aravena         : Magnetic Suceptibility
   Michael Atanasov       : Ab Initio Ligand Field Theory (pilot matlab implementation)
   Alexander A. Auer      : GIAO ZORA, VPT2 properties, NMR spectrum
   Ute Becker             : Parallelization
   Giovanni Bistoni       : ED, misc. LED, open-shell LED, HFLD
   Martin Brehm           : Molecular dynamics
   Dmytro Bykov           : SCF Hessian
   Vijay G. Chilkuri      : MRCI spin determinant printing, contributions to CSF-ICE
   Dipayan Datta          : RHF DLPNO-CCSD density
   Achintya Kumar Dutta   : EOM-CC, STEOM-CC
   Dmitry Ganyushin       : Spin-Orbit,Spin-Spin,Magnetic field MRCI
   Miquel Garcia          : C-PCM and meta-GGA Hessian, CC/C-PCM, Gaussian charge scheme
   Yang Guo               : DLPNO-NEVPT2, F12-NEVPT2, CIM, IAO-localization
   Andreas Hansen         : Spin unrestricted coupled pair/coupled cluster methods
   Benjamin Helmich-Paris : MC-RPA, TRAH-SCF, COSX integrals
   Lee Huntington         : MR-EOM, pCC
   Robert Izsak           : Overlap fitted RIJCOSX, COSX-SCS-MP3, EOM
   Marcus Kettner         : VPT2
   Christian Kollmar      : KDIIS, OOCD, Brueckner-CCSD(T), CCSD density, CASPT2, CASPT2-K
   Simone Kossmann        : Meta GGA functionals, TD-DFT gradient, OOMP2, MP2 Hessian
   Martin Krupicka        : Initial AUTO-CI
   Lucas Lang             : DCDCAS
   Marvin Lechner         : AUTO-CI (C++ implementation), FIC-MRCC
   Dagmar Lenk            : GEPOL surface, SMD
   Dimitrios Liakos       : Extrapolation schemes; Compound Job, initial MDCI parallelization
   Dimitrios Manganas     : Further ROCIS development; embedding schemes
   Dimitrios Pantazis     : SARC Basis sets
   Anastasios Papadopoulos: AUTO-CI, single reference methods and gradients
   Taras Petrenko         : DFT Hessian,TD-DFT gradient, ASA, ECA, R-Raman, ABS, FL, XAS/XES, NRVS
   Peter Pinski           : DLPNO-MP2, DLPNO-MP2 Gradient
   Christoph Reimann      : Effective Core Potentials
   Marius Retegan         : Local ZFS, SOC
   Christoph Riplinger    : Optimizer, TS searches, QM/MM, DLPNO-CCSD(T), (RO)-DLPNO pert. Triples
   Tobias Risthaus        : Range-separated hybrids, TD-DFT gradient, RPA, STAB
   Michael Roemelt        : Original ROCIS implementation
   Masaaki Saitow         : Open-shell DLPNO-CCSD energy and density
   Barbara Sandhoefer     : DKH picture change effects
   Avijit Sen             : IP-ROCIS
   Kantharuban Sivalingam : CASSCF convergence, NEVPT2, FIC-MRCI
   Bernardo de Souza      : ESD, SOC TD-DFT
   Georgi Stoychev        : AutoAux, RI-MP2 NMR, DLPNO-MP2 response
   Willem Van den Heuvel  : Paramagnetic NMR
   Boris Wezisla          : Elementary symmetry handling
   Frank Wennmohs         : Technical directorship


 We gratefully acknowledge several colleagues who have allowed us to
 interface, adapt or use parts of their codes:
   Stefan Grimme, W. Hujo, H. Kruse, P. Pracht,  : VdW corrections, initial TS optimization,
                  C. Bannwarth, S. Ehlert          DFT functionals, gCP, sTDA/sTD-DF
   Ed Valeev, F. Pavosevic, A. Kumar             : LibInt (2-el integral package), F12 methods
   Garnet Chan, S. Sharma, J. Yang, R. Olivares  : DMRG
   Ulf Ekstrom                                   : XCFun DFT Library
   Mihaly Kallay                                 : mrcc  (arbitrary order and MRCC methods)
   Jiri Pittner, Ondrej Demel                    : Mk-CCSD
   Frank Weinhold                                : gennbo (NPA and NBO analysis)
   Christopher J. Cramer and Donald G. Truhlar   : smd solvation model
   Lars Goerigk                                  : TD-DFT with DH, B97 family of functionals
   V. Asgeirsson, H. Jonsson                     : NEB implementation
   FAccTs GmbH                                   : IRC, NEB, NEB-TS, DLPNO-Multilevel, CI-OPT
                                                   MM, QMMM, 2- and 3-layer-ONIOM, Crystal-QMMM,
                                                   LR-CPCM, SF, NACMEs, symmetry and pop. for TD-DFT,
                                                   nearIR, NL-DFT gradient (VV10), updates on ESD,
                                                   ML-optimized integration grids
   S Lehtola, MJT Oliveira, MAL Marques          : LibXC Library
   Liviu Ungur et al                             : ANISO software


 Your calculation uses the libint2 library for the computation of 2-el integrals
 For citations please refer to: http://libint.valeyev.net

 Your ORCA version has been built with support for libXC version: 5.1.0
 For citations please refer to: https://tddft.org/programs/libxc/

 This ORCA versions uses:
   CBLAS   interface :  Fast vector & matrix operations
   LAPACKE interface :  Fast linear algebra routines
   SCALAPACK package :  Parallel linear algebra routines
   Shared memory     :  Shared parallel matrices
   BLAS/LAPACK       :  OpenBLAS 0.3.15  USE64BITINT DYNAMIC_ARCH NO_AFFINITY SkylakeX SINGLE_THREADED
        Core in use  :  SkylakeX
   Copyright (c) 2011-2014, The OpenBLAS Project




################################################################################


                                COMPOUND JOB MainJOB 
Basename: propane_hessian_Compound_0

################################################################################

================================================================================
                                       INPUT FILE
================================================================================
NAME = propane_hessian_Compound_0.inp
|  1> * xyz   0   1
|  2>    C    -5.467000     1.905000    -0.072000
|  3>    C    -3.959000     1.905000    -0.072000
|  4>    H    -5.856000     2.951000    -0.072000
|  5>    H    -5.860000     1.382000    -0.976000
|  6>    H    -5.860000     1.381000     0.833000
|  7>    C    -3.400000     0.505000    -0.072000
|  8>    H    -3.585000     2.457000    -0.974000
|  9>    H    -3.585000     2.457000     0.831000
| 10>    H    -2.283000     0.532000    -0.072000
| 11>    H    -3.739000    -0.054000     0.833000
| 12>    H    -3.739000    -0.054000    -0.977000
| 13>   *
| 14>  
| 15>  %pal nprocs  12 end
| 16>  %maxcore  1000
| 17>  
| 18> 
| 19>                          ****END OF INPUT****
================================================================================
================================================================================

----- Orbital basis set information -----
Your calculation utilizes the basis: def2-SVP
   F. Weigend and R. Ahlrichs, Phys. Chem. Chem. Phys. 7, 3297 (2005).



################################################################################


                                COMPOUND JOB  1 
Basename: propane_hessian_Compound_1
NOTE: please remember that MaxCore and PAL settings will be ignored.

################################################################################

================================================================================
                                       INPUT FILE
================================================================================
NAME = propane_hessian_Compound_1.inp
|  1>   ! opt freq PBE0 D3 6-31+G* nopop nori
|  2>   %base "propane_opt"
|  3> 
|  4>                          ****END OF INPUT****
================================================================================
Your calculation utilizes the atom-pairwise dispersion correction
with the Becke-Johnson damping scheme (D3BJ)
Cite in your paper:
S.Grimme, S.Ehrlich, L.Goerigk, J Comput Chem, (2011), 32, 1456–1465 
S.Grimme, J.Antony, S.Ehrlich and H.Krieg, J.Chem.Phys., 132, (2010), 154104 
   

================================================================================

----- Orbital basis set information -----
Your calculation utilizes the basis: 6-31+G*
   H-He, Li-Ne : W. J. Hehre, R. Ditchfield and J.A. Pople, J. Chem. Phys. 56, 2257 (1972).
                 Note: He and Ne are unpublished basis sets taken from the Gaussian program.
                 Note: Li and B from J. D. Dill and J. A. Pople, J. Chem. Phys. 62, 2921 (1975).
   Na - Ar     : M. M. Francl, W. J. Pietro, W. J. Hehre, J. S. Binkley, M. S. Gordon, 
                 D. J. DeFrees and J. A. Pople, J. Chem. Phys. 77, 3654 (1982).
   K - Zn      : V. A. Rassolov, J. A. Pople, M. A. Ratner, and T. L. Windus, J. Chem. Phys. 109, 1223 (1998).
   Additional Pol./Diff. from the 6-311G equivalent.

================================================================================
                                        WARNINGS
                       Please study these warnings very carefully!
================================================================================

WARNING: Old DensityContainer found on disk!
         Will remove this file - 
         If you want to keep old densities, please start your calculation with a different basename. 


WARNING: Geometry Optimization
  ===> : Switching off AutoStart
         For restart on a previous wavefunction, please use MOREAD

INFO   : the flag for use of the SHARK integral package has been found!


                       *****************************
                       * Geometry Optimization Run *
                       *****************************

Geometry optimization settings:
Update method            Update   .... BFGS
Choice of coordinates    CoordSys .... Z-matrix Internals
Initial Hessian          InHess   .... Almoef's Model

Convergence Tolerances:
Energy Change            TolE     ....  5.0000e-06 Eh
Max. Gradient            TolMAXG  ....  3.0000e-04 Eh/bohr
RMS Gradient             TolRMSG  ....  1.0000e-04 Eh/bohr
Max. Displacement        TolMAXD  ....  4.0000e-03 bohr
RMS Displacement         TolRMSD  ....  2.0000e-03 bohr
Strict Convergence                ....  False
------------------------------------------------------------------------------
                        ORCA OPTIMIZATION COORDINATE SETUP
------------------------------------------------------------------------------

The optimization will be done in new redundant internal coordinates
Making redundant internal coordinates   ...  (new redundants) done
Evaluating the initial hessian          ...  (Almloef) done
Evaluating the coordinates              ...  done
Calculating the B-matrix                .... done
Calculating the G-matrix                .... done
Diagonalizing the G-matrix              .... done
The first mode is                       ....   19
The number of degrees of freedom        ....   27

    -----------------------------------------------------------------
                    Redundant Internal Coordinates


    -----------------------------------------------------------------
         Definition                    Initial Value    Approx d2E/dq
    -----------------------------------------------------------------
      1. B(C   1,C   0)                  1.5080         0.405021   
      2. B(H   2,C   0)                  1.1160         0.327307   
      3. B(H   3,C   0)                  1.1159         0.327438   
      4. B(H   4,C   0)                  1.1172         0.325903   
      5. B(C   5,C   1)                  1.5075         0.405802   
      6. B(H   6,C   1)                  1.1217         0.320529   
      7. B(H   7,C   1)                  1.1225         0.319583   
      8. B(H   8,C   5)                  1.1173         0.325706   
      9. B(H   9,C   5)                  1.1164         0.326774   
     10. B(H  10,C   5)                  1.1164         0.326774   
     11. A(H   2,C   0,H   4)          108.4821         0.282113   
     12. A(C   1,C   0,H   2)          110.3998         0.323539   
     13. A(H   3,C   0,H   4)          108.2124         0.282131   
     14. A(H   2,C   0,H   3)          108.4533         0.282319   
     15. A(C   1,C   0,H   3)          110.6212         0.323560   
     16. A(C   1,C   0,H   4)          110.5965         0.323311   
     17. A(C   0,C   1,C   5)          111.7661         0.373699   
     18. A(H   6,C   1,H   7)          107.0859         0.280351   
     19. A(C   5,C   1,H   7)          109.4601         0.322377   
     20. A(C   0,C   1,H   7)          109.4623         0.322275   
     21. A(C   5,C   1,H   6)          109.4746         0.322533   
     22. A(C   0,C   1,H   6)          109.4769         0.322431   
     23. A(H   8,C   5,H   9)          108.4004         0.282016   
     24. A(C   1,C   5,H   9)          110.6346         0.323555   
     25. A(C   1,C   5,H   8)          110.3814         0.323381   
     26. A(H   9,C   5,H  10)          108.3123         0.282159   
     27. A(H   8,C   5,H  10)          108.4004         0.282016   
     28. A(C   1,C   5,H  10)          110.6346         0.323555   
     29. D(H   7,C   1,C   0,H   2)     58.5627         0.013004   
     30. D(H   6,C   1,C   0,H   2)    -58.5345         0.013004   
     31. D(H   7,C   1,C   0,H   4)    -61.5083         0.013004   
     32. D(H   7,C   1,C   0,H   3)    178.6138         0.013004   
     33. D(C   5,C   1,C   0,H   4)     59.9289         0.013004   
     34. D(H   6,C   1,C   0,H   4)   -178.6056         0.013004   
     35. D(C   5,C   1,C   0,H   3)    -59.9489         0.013004   
     36. D(C   5,C   1,C   0,H   2)    180.0000         0.013004   
     37. D(H   6,C   1,C   0,H   3)     61.5166         0.013004   
     38. D(H   9,C   5,C   1,H   6)    178.5150         0.013053   
     39. D(H   9,C   5,C   1,C   0)    -60.0182         0.013053   
     40. D(H   8,C   5,C   1,H   7)    -58.5615         0.013053   
     41. D(H   8,C   5,C   1,H   6)     58.5332         0.013053   
     42. D(H   9,C   5,C   1,H   7)     61.4203         0.013053   
     43. D(H   8,C   5,C   1,C   0)    180.0000         0.013053   
     44. D(H  10,C   5,C   1,H   7)   -178.5433         0.013053   
     45. D(H  10,C   5,C   1,H   6)    -61.4486         0.013053   
     46. D(H  10,C   5,C   1,C   0)     60.0182         0.013053   
    -----------------------------------------------------------------

Number of atoms                         .... 11
Number of degrees of freedom            .... 46

         *************************************************************
         *                GEOMETRY OPTIMIZATION CYCLE   1            *
         *************************************************************
---------------------------------
CARTESIAN COORDINATES (ANGSTROEM)
---------------------------------
  C     -5.467000    1.905000   -0.072000
  C     -3.959000    1.905000   -0.072000
  H     -5.856000    2.951000   -0.072000
  H     -5.860000    1.382000   -0.976000
  H     -5.860000    1.381000    0.833000
  C     -3.400000    0.505000   -0.072000
  H     -3.585000    2.457000   -0.974000
  H     -3.585000    2.457000    0.831000
  H     -2.283000    0.532000   -0.072000
  H     -3.739000   -0.054000    0.833000
  H     -3.739000   -0.054000   -0.977000

----------------------------
CARTESIAN COORDINATES (A.U.)
----------------------------
  NO LB      ZA    FRAG     MASS         X           Y           Z
   0 C     6.0000    0    12.011  -10.331133    3.599928   -0.136060
   1 C     6.0000    0    12.011   -7.481426    3.599928   -0.136060
   2 H     1.0000    0     1.008  -11.066236    5.576582   -0.136060
   3 H     1.0000    0     1.008  -11.073795    2.611602   -1.844373
   4 H     1.0000    0     1.008  -11.073795    2.609712    1.574142
   5 C     6.0000    0    12.011   -6.425069    0.954312   -0.136060
   6 H     1.0000    0     1.008   -6.774668    4.643057   -1.840593
   7 H     1.0000    0     1.008   -6.774668    4.643057    1.570362
   8 H     1.0000    0     1.008   -4.314245    1.005334   -0.136060
   9 H     1.0000    0     1.008   -7.065686   -0.102045    1.574142
  10 H     1.0000    0     1.008   -7.065686   -0.102045   -1.846262

--------------------------------
INTERNAL COORDINATES (ANGSTROEM)
--------------------------------
 C      0   0   0     0.000000000000     0.00000000     0.00000000
 C      1   0   0     1.508000000000     0.00000000     0.00000000
 H      1   2   0     1.115991487423   110.39981170     0.00000000
 H      1   2   3     1.115882610313   110.62117600   120.05109098
 H      1   2   3     1.117161581867   110.59649497   239.92892161
 C      2   1   3     1.507475041253   111.76612015   180.00000000
 H      2   1   3     1.121688013665   109.47685505   301.46552316
 H      2   1   3     1.122492316232   109.46233627    58.56273541
 H      6   2   1     1.117326272850   110.38144256   180.00000000
 H      6   2   1     1.116434951083   110.63456468   299.98179972
 H      6   2   1     1.116434951083   110.63456468    60.01820028

---------------------------
INTERNAL COORDINATES (A.U.)
---------------------------
 C      0   0   0     0.000000000000     0.00000000     0.00000000
 C      1   0   0     2.849707009953     0.00000000     0.00000000
 H      1   2   0     2.108918279016   110.39981170     0.00000000
 H      1   2   3     2.108712531098   110.62117600   120.05109098
 H      1   2   3     2.111129437067   110.59649497   239.92892161
 C      2   1   3     2.848714981689   111.76612015   180.00000000
 H      2   1   3     2.119683153529   109.47685505   301.46552316
 H      2   1   3     2.121203065110   109.46233627    58.56273541
 H      6   2   1     2.111440657921   110.38144256   180.00000000
 H      6   2   1     2.109756303885   110.63456468   299.98179972
 H      6   2   1     2.109756303885   110.63456468    60.01820028

---------------------
BASIS SET INFORMATION
---------------------
There are 2 groups of distinct atoms

 Group   1 Type C   : 11s5p1d contracted to 4s3p1d pattern {6311/311/1}
 Group   2 Type H   : 4s contracted to 2s pattern {31}

Atom   0C    basis set group =>   1
Atom   1C    basis set group =>   1
Atom   2H    basis set group =>   2
Atom   3H    basis set group =>   2
Atom   4H    basis set group =>   2
Atom   5C    basis set group =>   1
Atom   6H    basis set group =>   2
Atom   7H    basis set group =>   2
Atom   8H    basis set group =>   2
Atom   9H    basis set group =>   2
Atom  10H    basis set group =>   2


           ************************************************************
           *        Program running with 12 parallel MPI-processes    *
           *              working on a common directory               *
           ************************************************************
------------------------------------------------------------------------------
                           ORCA GTO INTEGRAL CALCULATION
------------------------------------------------------------------------------
------------------------------------------------------------------------------
                   ___                                                        
                  /   \      - P O W E R E D   B Y -                         
                 /     \                                                     
                 |  |  |   _    _      __       _____    __    __             
                 |  |  |  | |  | |    /  \     |  _  \  |  |  /  |          
                  \  \/   | |  | |   /    \    | | | |  |  | /  /          
                 / \  \   | |__| |  /  /\  \   | |_| |  |  |/  /          
                |  |  |   |  __  | /  /__\  \  |    /   |      \           
                |  |  |   | |  | | |   __   |  |    \   |  |\   \          
                \     /   | |  | | |  |  |  |  | |\  \  |  | \   \       
                 \___/    |_|  |_| |__|  |__|  |_| \__\ |__|  \__/        
                                                                              
                      - O R C A' S   B I G   F R I E N D -                    
                                      &                                       
                       - I N T E G R A L  F E E D E R -                       
                                                                              
 v1 FN, 2020, v2 2021                                                         
------------------------------------------------------------------------------


Reading SHARK input file propane_opt.SHARKINP.tmp ... ok
----------------------
SHARK INTEGRAL PACKAGE
----------------------

Number of atoms                             ...     11
Number of basis functions                   ...     70
Number of shells                            ...     40
Maximum angular momentum                    ...      2
Integral batch strategy                     ... SHARK/LIBINT Hybrid
RI-J (if used) integral strategy            ... SPLIT-RIJ (Revised 2003 algorithm where possible)
Printlevel                                  ...      1
Contraction scheme used                     ... SEGMENTED contraction
Coulomb Range Separation                    ... NOT USED
Exchange Range Separation                   ... NOT USED
Finite Nucleus Model                        ... NOT USED
Auxiliary Coulomb fitting basis             ... NOT available
Auxiliary J/K fitting basis                 ... NOT available
Auxiliary Correlation fitting basis         ... NOT available
Auxiliary 'external' fitting basis          ... NOT available
Integral threshold                          ...     2.500000e-11
Primitive cut-off                           ...     2.500000e-12
Primitive pair pre-selection threshold      ...     2.500000e-12

Calculating pre-screening integrals         ... done (  0.0 sec) Dimension = 40
Organizing shell pair data                  ... done (  0.0 sec)
Shell pair information
Total number of shell pairs                 ...       820
Shell pairs after pre-screening             ...       819
Total number of primitive shell pairs       ...      3573
Primitive shell pairs kept                  ...      2942
          la=0 lb=0:    405 shell pairs
          la=1 lb=0:    252 shell pairs
          la=1 lb=1:     45 shell pairs
          la=2 lb=0:     84 shell pairs
          la=2 lb=1:     27 shell pairs
          la=2 lb=2:      6 shell pairs

Calculating one electron integrals          ... done (  0.0 sec)
Calculating Nuclear repulsion               ... done (  0.0 sec) ENN=     82.570232588887 Eh

SHARK setup successfully completed in   0.1 seconds

Maximum memory used throughout the entire GTOINT-calculation: 7.6 MB


           ************************************************************
           *        Program running with 12 parallel MPI-processes    *
           *              working on a common directory               *
           ************************************************************
-------------------------------------------------------------------------------
                                 ORCA SCF
-------------------------------------------------------------------------------

------------
SCF SETTINGS
------------
Hamiltonian:
 Density Functional     Method          .... DFT(GTOs)
 Exchange Functional    Exchange        .... PBE
   PBE kappa parameter   XKappa         ....  0.804000
   PBE mue parameter    XMuePBE         ....  0.219520
 Correlation Functional Correlation     .... PBE
   PBE beta parameter  CBetaPBE         ....  0.066725
 LDA part of GGA corr.  LDAOpt          .... PW91-LDA
 Gradients option       PostSCFGGA      .... off
 Hybrid DFT is turned on
   Fraction HF Exchange ScalHFX         ....  0.250000
   Scaling of DF-GGA-X  ScalDFX         ....  0.750000
   Scaling of DF-GGA-C  ScalDFC         ....  1.000000
   Scaling of DF-LDA-C  ScalLDAC        ....  1.000000
   Perturbative correction              ....  0.000000
   Density functional embedding theory  .... OFF
   NL short-range parameter             ....  6.900000


General Settings:
 Integral files         IntName         .... propane_opt
 Hartree-Fock type      HFTyp           .... RHF
 Total Charge           Charge          ....    0
 Multiplicity           Mult            ....    1
 Number of Electrons    NEL             ....   26
 Basis Dimension        Dim             ....   70
 Nuclear Repulsion      ENuc            ....     82.5702325889 Eh

Convergence Acceleration:
 DIIS                   CNVDIIS         .... on
   Start iteration      DIISMaxIt       ....    12
   Startup error        DIISStart       ....  0.200000
   # of expansion vecs  DIISMaxEq       ....     5
   Bias factor          DIISBfac        ....   1.050
   Max. coefficient     DIISMaxC        ....  10.000
 Trust-Rad. Augm. Hess. CNVTRAH         .... auto
   Auto Start mean grad. ratio tolernc. ....  1.125000
   Auto Start start iteration           ....    20
   Auto Start num. interpolation iter.  ....    10
   Max. Number of Micro iterations      ....    16
   Max. Number of Macro iterations      .... Maxiter - #DIIS iter
   Number of Davidson start vectors     ....     2
   Converg. threshold I  (grad. norm)   ....   1.000e-05
   Converg. threshold II (energy diff.) ....   1.000e-08
   Grad. Scal. Fac. for Micro threshold ....   0.100
   Minimum threshold for Micro iter.    ....   0.010
   NR start threshold (gradient norm)   ....   0.001
   Initial trust radius                 ....   0.400
   Minimum AH scaling param. (alpha)    ....   1.000
   Maximum AH scaling param. (alpha)    .... 1000.000
   Orbital update algorithm             .... Taylor
   White noise on init. David. guess    .... on
   Maximum white noise                  ....   0.010
   Quad. conv. algorithm                .... NR
 SOSCF                  CNVSOSCF        .... on
   Start iteration      SOSCFMaxIt      ....   150
   Startup grad/error   SOSCFStart      ....  0.003300
 Level Shifting         CNVShift        .... on
   Level shift para.    LevelShift      ....    0.2500
   Turn off err/grad.   ShiftErr        ....    0.0010
 Zerner damping         CNVZerner       .... off
 Static damping         CNVDamp         .... on
   Fraction old density DampFac         ....    0.7000
   Max. Damping (<1)    DampMax         ....    0.9800
   Min. Damping (>=0)   DampMin         ....    0.0000
   Turn off err/grad.   DampErr         ....    0.1000
 Fernandez-Rico         CNVRico         .... off

SCF Procedure:
 Maximum # iterations   MaxIter         ....   125
 SCF integral mode      SCFMode         .... Direct
   Integral package                     .... SHARK and LIBINT hybrid scheme
 Reset frequency        DirectResetFreq ....    20
 Integral Threshold     Thresh          ....  2.500e-11 Eh
 Primitive CutOff       TCut            ....  2.500e-12 Eh

Convergence Tolerance:
 Convergence Check Mode ConvCheckMode   .... Total+1el-Energy
 Convergence forced     ConvForced      .... 0
 Energy Change          TolE            ....  1.000e-08 Eh
 1-El. energy change                    ....  1.000e-05 Eh
 Orbital Gradient       TolG            ....  1.000e-05
 Orbital Rotation angle TolX            ....  1.000e-05
 DIIS Error             TolErr          ....  5.000e-07


Diagonalization of the overlap matrix:
Smallest eigenvalue                        ... 2.012e-04
Time for diagonalization                   ...    0.002 sec
Threshold for overlap eigenvalues          ... 1.000e-08
Number of eigenvalues below threshold      ... 0
Time for construction of square roots      ...    0.005 sec
Total time needed                          ...    0.007 sec

Time for model grid setup =    0.069 sec

------------------------------
INITIAL GUESS: MODEL POTENTIAL
------------------------------
Loading Hartree-Fock densities                     ... done
Calculating cut-offs                               ... done
Initializing the effective Hamiltonian             ... done
Setting up the integral package (SHARK)            ... done
Starting the Coulomb interaction                   ... done (   0.0 sec)
Reading the grid                                   ... done
Mapping shells                                     ... done
Starting the XC term evaluation                    ... done (   0.0 sec)
  promolecular density results
     # of electrons  =     25.996375574
     EX              =    -17.664600350
     EC              =     -0.816180394
     EX+EC           =    -18.480780744
Transforming the Hamiltonian                       ... done (   0.0 sec)
Diagonalizing the Hamiltonian                      ... done (   0.0 sec)
Back transforming the eigenvectors                 ... done (   0.0 sec)
Now organizing SCF variables                       ... done
                      ------------------
                      INITIAL GUESS DONE (   0.1 sec)
                      ------------------
-------------------
DFT GRID GENERATION
-------------------

General Integration Accuracy     IntAcc      ... 4.388
Radial Grid Type                 RadialGrid  ... OptM3 with GC (2021)
Angular Grid (max. ang.)         AngularGrid ... 4 (Lebedev-302)
Angular grid pruning method      GridPruning ... 4 (adaptive)
Weight generation scheme         WeightScheme... Becke
Basis function cutoff            BFCut       ... 1.0000e-11
Integration weight cutoff        WCut        ... 1.0000e-14
Angular grids for H and He will be reduced by one unit
Partially contracted basis set               ... off
Rotationally invariant grid construction     ... off

Total number of grid points                  ...    44861
Total number of batches                      ...      705
Average number of points per batch           ...       63
Average number of grid points per atom       ...     4078
Time for grid setup =    0.206 sec

--------------
SCF ITERATIONS
--------------
ITER       Energy         Delta-E        Max-DP      RMS-DP      [F,P]     Damp
               ***  Starting incremental Fock matrix formation  ***
  0   -118.8521740885   0.000000000000 0.05717361  0.00331889  0.1679237 0.7000
  1   -118.9135199627  -0.061345874197 0.03890982  0.00245337  0.0887270 0.7000
                               ***Turning on DIIS***
  2   -118.9387454396  -0.025225476945 0.06065066  0.00409237  0.0346519 0.0000
  3   -118.9722633064  -0.033517866755 0.02634846  0.00175585  0.0469799 0.0000
  4   -118.9833476155  -0.011084309106 0.00531492  0.00051154  0.0097500 0.0000
                      *** Initiating the SOSCF procedure ***
                           *** Shutting down DIIS ***
                      *** Re-Reading the Fockian *** 
                      *** Removing any level shift *** 
ITER      Energy       Delta-E        Grad      Rot      Max-DP    RMS-DP
  5   -118.98386347  -0.0005158559  0.000742  0.000742  0.001537  0.000162
               *** Restarting incremental Fock matrix formation ***
  6   -118.98389534  -0.0000318644  0.000308  0.000798  0.001439  0.000116
  7   -118.98389649  -0.0000011559  0.000377  0.000234  0.000551  0.000031
  8   -118.98389861  -0.0000021150  0.000032  0.000036  0.000082  0.000007
  9   -118.98389862  -0.0000000138  0.000017  0.000014  0.000035  0.000002
 10   -118.98389863  -0.0000000047  0.000005  0.000007  0.000012  0.000001
 11   -118.98389863  -0.0000000002  0.000003  0.000002  0.000006  0.000000
                 **** Energy Check signals convergence ****
              ***Rediagonalizing the Fockian in SOSCF/NRSCF***

               *****************************************************
               *                     SUCCESS                       *
               *           SCF CONVERGED AFTER  12 CYCLES          *
               *****************************************************


----------------
TOTAL SCF ENERGY
----------------

Total Energy       :         -118.98389863 Eh           -3237.71648 eV

Components:
Nuclear Repulsion  :           82.57023259 Eh            2246.85026 eV
Electronic Energy  :         -201.55413121 Eh           -5484.56674 eV
One Electron Energy:         -321.75778769 Eh           -8755.47452 eV
Two Electron Energy:          120.20365648 Eh            3270.90778 eV

Virial components:
Potential Energy   :         -237.09806369 Eh           -6451.76631 eV
Kinetic Energy     :          118.11416507 Eh            3214.04983 eV
Virial Ratio       :            2.00736350


DFT components:
N(Alpha)           :       12.999985208944 electrons
N(Beta)            :       12.999985208944 electrons
N(Total)           :       25.999970417888 electrons
E(X)               :      -13.660439054858 Eh       
E(C)               :       -0.823865426402 Eh       
E(XC)              :      -14.484304481260 Eh       
DFET-embed. en.    :        0.000000000000 Eh       

---------------
SCF CONVERGENCE
---------------

  Last Energy change         ...   -2.8911e-10  Tolerance :   1.0000e-08
  Last MAX-Density change    ...    8.2044e-06  Tolerance :   1.0000e-07
  Last RMS-Density change    ...    4.0540e-07  Tolerance :   5.0000e-09
  Last Orbital Gradient      ...    3.2686e-07  Tolerance :   1.0000e-05
  Last Orbital Rotation      ...    3.2391e-07  Tolerance :   1.0000e-05

             **** THE GBW FILE WAS UPDATED (propane_opt.gbw) ****
             **** DENSITY propane_opt.scfp WAS UPDATED ****
             **** ENERGY FILE WAS UPDATED (propane_opt.en.tmp) ****
             **** THE GBW FILE WAS UPDATED (propane_opt.gbw) ****
             **** DENSITY propane_opt.scfp WAS UPDATED ****
----------------
ORBITAL ENERGIES
----------------

  NO   OCC          E(Eh)            E(eV) 
   0   2.0000     -10.225939      -278.2619 
   1   2.0000     -10.218069      -278.0478 
   2   2.0000     -10.217963      -278.0449 
   3   2.0000      -0.807874       -21.9834 
   4   2.0000      -0.696150       -18.9432 
   5   2.0000      -0.592514       -16.1231 
   6   2.0000      -0.471840       -12.8394 
   7   2.0000      -0.449834       -12.2406 
   8   2.0000      -0.409758       -11.1501 
   9   2.0000      -0.388415       -10.5693 
  10   2.0000      -0.345763        -9.4087 
  11   2.0000      -0.344592        -9.3768 
  12   2.0000      -0.333044        -9.0626 
  13   0.0000       0.026064         0.7092 
  14   0.0000       0.041765         1.1365 
  15   0.0000       0.045122         1.2278 
  16   0.0000       0.053220         1.4482 
  17   0.0000       0.080245         2.1836 
  18   0.0000       0.087587         2.3834 
  19   0.0000       0.092705         2.5226 
  20   0.0000       0.092883         2.5275 
  21   0.0000       0.103538         2.8174 
  22   0.0000       0.124195         3.3795 
  23   0.0000       0.132949         3.6177 
  24   0.0000       0.158828         4.3219 
  25   0.0000       0.203497         5.5374 
  26   0.0000       0.203778         5.5451 
  27   0.0000       0.205181         5.5832 
  28   0.0000       0.256364         6.9760 
  29   0.0000       0.259722         7.0674 
  30   0.0000       0.265766         7.2319 
  31   0.0000       0.296810         8.0766 
  32   0.0000       0.319279         8.6880 
  33   0.0000       0.336690         9.1618 
  34   0.0000       0.352776         9.5995 
  35   0.0000       0.639876        17.4119 
  36   0.0000       0.642952        17.4956 
  37   0.0000       0.667815        18.1722 
  38   0.0000       0.677527        18.4364 
  39   0.0000       0.708688        19.2844 
  40   0.0000       0.735278        20.0079 
  41   0.0000       0.758265        20.6334 
  42   0.0000       0.765092        20.8192 
  43   0.0000       0.848575        23.0909 
  44   0.0000       0.941148        25.6099 
  45   0.0000       0.965721        26.2786 
  46   0.0000       0.981490        26.7077 
  47   0.0000       1.007354        27.4115 
  48   0.0000       1.032594        28.0983 
  49   0.0000       1.080428        29.3999 
  50   0.0000       1.119989        30.4765 
  51   0.0000       1.125020        30.6133 
  52   0.0000       1.136050        30.9135 
  53   0.0000       1.439838        39.1800 
  54   0.0000       1.470693        40.0196 
  55   0.0000       1.487296        40.4714 
  56   0.0000       1.599126        43.5144 
  57   0.0000       1.780679        48.4547 
  58   0.0000       1.912597        52.0444 
  59   0.0000       1.976611        53.7863 
  60   0.0000       2.019561        54.9551 
  61   0.0000       2.068520        56.2873 
  62   0.0000       2.152550        58.5739 
  63   0.0000       2.236074        60.8467 
  64   0.0000       2.259754        61.4910 
  65   0.0000       2.342473        63.7419 
  66   0.0000       2.407409        65.5089 
  67   0.0000       2.441997        66.4501 
  68   0.0000       2.627908        71.5090 
  69   0.0000       2.738703        74.5239 
-------
TIMINGS
-------

Total SCF time: 0 days 0 hours 0 min 3 sec 

Total time                  ....       3.168 sec
Sum of individual times     ....       2.740 sec  ( 86.5%)

Fock matrix formation       ....       2.318 sec  ( 73.2%)
  XC integration            ....       1.618 sec  ( 69.8% of F)
    Basis function eval.    ....       0.193 sec  ( 12.0% of XC)
    Density eval.           ....       0.084 sec  (  5.2% of XC)
    XC-Functional eval.     ....       0.077 sec  (  4.7% of XC)
    XC-Potential eval.      ....       0.093 sec  (  5.7% of XC)
Diagonalization             ....       0.024 sec  (  0.8%)
Density matrix formation    ....       0.002 sec  (  0.1%)
Population analysis         ....       0.000 sec  (  0.0%)
Initial guess               ....       0.040 sec  (  1.3%)
Orbital Transformation      ....       0.000 sec  (  0.0%)
Orbital Orthonormalization  ....       0.000 sec  (  0.0%)
DIIS solution               ....       0.048 sec  (  1.5%)
SOSCF solution              ....       0.032 sec  (  1.0%)
Grid generation             ....       0.275 sec  (  8.7%)

Maximum memory used throughout the entire SCF-calculation: 228.3 MB


-------------------------------------------------------------------------------
                          DFT DISPERSION CORRECTION                            
                                                                               
                              DFTD3 V3.1  Rev 1                                
                          USING Becke-Johnson damping                          
-------------------------------------------------------------------------------
The PBE0 functional is recognized
Active option DFTDOPT                   ...         4   

molecular C6(AA) [au] = 721.385699 


            DFT-D V3
 parameters
 s6 scaling factor         :     1.0000 
 a1 scaling factor         :     0.4145 
 s8 scaling factor         :     1.2177 
 a2 scaling factor         :     4.8593 
 ad hoc parameters k1-k3   :    16.0000     1.3333    -4.0000 

 Edisp/kcal,au: -3.124586232121  -0.004979344580 
 E6   /kcal   :  -2.072500537 
 E8   /kcal   :  -1.052085695 
 % E8         :  33.671200499 

-------------------------   ----------------
Dispersion correction           -0.004979345
-------------------------   ----------------


-------------------------   --------------------
FINAL SINGLE POINT ENERGY      -118.988877970347
-------------------------   --------------------



           ************************************************************
           *        Program running with 12 parallel MPI-processes    *
           *              working on a common directory               *
           ************************************************************
------------------------------------------------------------------------------
                         ORCA SCF GRADIENT CALCULATION
------------------------------------------------------------------------------

Gradient of the Kohn-Sham DFT energy:
Kohn-Sham wavefunction type      ... RKS
Hartree-Fock exchange scaling    ...    0.250
Number of operators              ...    1
Number of atoms                  ...   11
Basis set dimensions             ...   70
Integral neglect threshold       ... 2.5e-11
Integral primitive cutoff        ... 2.5e-12
SHARK Integral package           ... ON

Nuc. rep. gradient       (SHARK) ... done (  0.0 sec)
HCore & Overlap gradient (SHARK) ... done (  0.0 sec)
Two-Electron gradient    (SHARK) ... done (  0.1 sec)
Exchange-correlation gradient    ... done
Dispersion correction            ... done

------------------
CARTESIAN GRADIENT
------------------

   1   C   :    0.016449057   -0.004357693   -0.000546566
   2   C   :   -0.010862631   -0.016537163   -0.000367731
   3   H   :   -0.000918124    0.012722330   -0.000044433
   4   H   :   -0.002331743   -0.005728891   -0.010122102
   5   H   :   -0.002548361   -0.006124358    0.010710500
   6   C   :   -0.011201809    0.013771569    0.000002743
   7   H   :    0.003704167    0.005466500   -0.012302664
   8   H   :    0.003840513    0.005667825    0.012664750
   9   H   :    0.012866457    0.003859787    0.000000647
  10   H   :   -0.004498481   -0.004371447    0.010471987
  11   H   :   -0.004499044   -0.004368459   -0.010467130

Difference to translation invariance:
           :   -0.0000000000    0.0000000000    0.0000000000

Difference to rotation invariance:
           :   -0.0000004235   -0.0000002037   -0.0000439378

Norm of the cartesian gradient     ...    0.0483663718
RMS gradient                       ...    0.0084195046
MAX gradient                       ...    0.0165371625

-------
TIMINGS
-------

Total SCF gradient time            ...        0.356 sec

One electron gradient       ....       0.007 sec  (  2.0%)
Two electron gradient       ....       0.108 sec  ( 30.4%)
XC gradient                 ....       0.098 sec  ( 27.4%)

Maximum memory used throughout the entire SCFGRAD-calculation: 24.1 MB
------------------------------------------------------------------------------
                         ORCA GEOMETRY RELAXATION STEP
------------------------------------------------------------------------------

Reading the OPT-File                    .... done
Getting information on internals        .... done
Copying old internal coords+grads       .... done
Making the new internal coordinates     .... (new redundants).... done
Validating the new internal coordinates .... (new redundants).... done
Calculating the B-matrix                .... done
Calculating the G,G- and P matrices     .... done
Transforming gradient to internals      .... done
Projecting the internal gradient        .... done
Number of atoms                         ....  11
Number of internal coordinates          ....  46
Current Energy                          ....  -118.988877970 Eh
Current gradient norm                   ....     0.048366372 Eh/bohr
Maximum allowed component of the step   ....  0.300
Current trust radius                    ....  0.300
Evaluating the initial hessian          ....  (Almloef) done
Projecting the Hessian                  .... done
Forming the augmented Hessian           .... done
Diagonalizing the augmented Hessian     .... done
Last element of RFO vector              ....  0.992275967
Lowest eigenvalues of augmented Hessian:
 -0.004960705  0.013004235  0.013052885  0.077632245  0.089421822
Length of the computed step             ....  0.125015638
The final length of the internal step   ....  0.125015638
Converting the step to cartesian space:
 Initial RMS(Int)=    0.0184325502
Transforming coordinates:
 Iter   0:  RMS(Cart)=    0.0272106358 RMS(Int)=    0.0184496963
 Iter   1:  RMS(Cart)=    0.0001936837 RMS(Int)=    0.0001265718
 Iter   2:  RMS(Cart)=    0.0000040486 RMS(Int)=    0.0000032822
 Iter   3:  RMS(Cart)=    0.0000001024 RMS(Int)=    0.0000000739
 Iter   4:  RMS(Cart)=    0.0000000022 RMS(Int)=    0.0000000016
done
Storing new coordinates                 .... done

                                .--------------------.
          ----------------------|Geometry convergence|-------------------------
          Item                value                   Tolerance       Converged
          ---------------------------------------------------------------------
          RMS gradient        0.0059868089            0.0001000000      NO
          MAX gradient        0.0142551226            0.0003000000      NO
          RMS step            0.0184325502            0.0020000000      NO
          MAX step            0.0439235802            0.0040000000      NO
          ........................................................
          Max(Bonds)      0.0232      Max(Angles)    0.88
          Max(Dihed)        0.64      Max(Improp)    0.00
          ---------------------------------------------------------------------

The optimization has not yet converged - more geometry cycles are needed


    ---------------------------------------------------------------------------
                         Redundant Internal Coordinates
                            (Angstroem and degrees)

        Definition                    Value    dE/dq     Step     New-Value
    ----------------------------------------------------------------------------
     1. B(C   1,C   0)                1.5080 -0.010649  0.0137    1.5217   
     2. B(H   2,C   0)                1.1160  0.012244 -0.0195    1.0965   
     3. B(H   3,C   0)                1.1159  0.011707 -0.0186    1.0972   
     4. B(H   4,C   0)                1.1172  0.012446 -0.0199    1.0973   
     5. B(C   5,C   1)                1.5075 -0.010979  0.0141    1.5216   
     6. B(H   6,C   1)                1.1217  0.013818 -0.0225    1.0992   
     7. B(H   7,C   1)                1.1225  0.014255 -0.0232    1.0992   
     8. B(H   8,C   5)                1.1173  0.012957 -0.0207    1.0966   
     9. B(H   9,C   5)                1.1164  0.012043 -0.0192    1.0972   
    10. B(H  10,C   5)                1.1164  0.012038 -0.0192    1.0972   
    11. A(H   2,C   0,H   4)          108.48  0.002933   -0.49    107.99   
    12. A(C   1,C   0,H   2)          110.40 -0.004514    0.87    111.27   
    13. A(H   3,C   0,H   4)          108.21  0.002039   -0.50    107.72   
    14. A(H   2,C   0,H   3)          108.45  0.002873   -0.47    107.98   
    15. A(C   1,C   0,H   3)          110.62 -0.001488    0.26    110.89   
    16. A(C   1,C   0,H   4)          110.60 -0.001547    0.27    110.87   
    17. A(C   0,C   1,C   5)          111.77 -0.003951    0.88    112.65   
    18. A(H   6,C   1,H   7)          107.09  0.000501   -0.74    106.34   
    19. A(C   5,C   1,H   7)          109.46  0.000908   -0.05    109.41   
    20. A(C   0,C   1,H   7)          109.46  0.000907   -0.05    109.41   
    21. A(C   5,C   1,H   6)          109.47  0.000915   -0.05    109.42   
    22. A(C   0,C   1,H   6)          109.48  0.000914   -0.05    109.42   
    23. A(H   8,C   5,H   9)          108.40  0.002880   -0.47    107.93   
    24. A(C   1,C   5,H   9)          110.63 -0.001560    0.27    110.91   
    25. A(C   1,C   5,H   8)          110.38 -0.004500    0.88    111.26   
    26. A(H   9,C   5,H  10)          108.31  0.002159   -0.54    107.77   
    27. A(H   8,C   5,H  10)          108.40  0.002881   -0.47    107.93   
    28. A(C   1,C   5,H  10)          110.63 -0.001562    0.27    110.91   
    29. D(H   7,C   1,C   0,H   2)     58.56  0.000843   -0.49     58.07   
    30. D(H   6,C   1,C   0,H   2)    -58.53 -0.000814    0.47    -58.06   
    31. D(H   7,C   1,C   0,H   4)    -61.51  0.001113   -0.61    -62.12   
    32. D(H   7,C   1,C   0,H   3)    178.61  0.000536   -0.34    178.27   
    33. D(C   5,C   1,C   0,H   4)     59.93  0.000279   -0.13     59.80   
    34. D(H   6,C   1,C   0,H   4)   -178.61 -0.000544    0.34   -178.26   
    35. D(C   5,C   1,C   0,H   3)    -59.95 -0.000298    0.14    -59.81   
    36. D(C   5,C   1,C   0,H   2)    180.00  0.000009   -0.01    179.99   
    37. D(H   6,C   1,C   0,H   3)     61.52 -0.001121    0.62     62.13   
    38. D(H   9,C   5,C   1,H   6)    178.51  0.000494   -0.32    178.20   
    39. D(H   9,C   5,C   1,C   0)    -60.02 -0.000329    0.16    -59.86   
    40. D(H   8,C   5,C   1,H   7)    -58.56 -0.000831    0.48    -58.08   
    41. D(H   8,C   5,C   1,H   6)     58.53  0.000827   -0.48     58.06   
    42. D(H   9,C   5,C   1,H   7)     61.42 -0.001164    0.64     62.06   
    43. D(H   8,C   5,C   1,C   0)    180.00  0.000004   -0.00    180.00   
    44. D(H  10,C   5,C   1,H   7)   -178.54 -0.000499    0.32   -178.22   
    45. D(H  10,C   5,C   1,H   6)    -61.45  0.001160   -0.64    -62.09   
    46. D(H  10,C   5,C   1,C   0)     60.02  0.000336   -0.16     59.86   
    ----------------------------------------------------------------------------

         *************************************************************
         *                GEOMETRY OPTIMIZATION CYCLE   2            *
         *************************************************************
---------------------------------
CARTESIAN COORDINATES (ANGSTROEM)
---------------------------------
  C     -5.480418    1.917030   -0.071803
  C     -3.958716    1.905576   -0.071827
  H     -5.870490    2.941792   -0.071634
  H     -5.875438    1.404473   -0.957913
  H     -5.875099    1.404142    0.814280
  C     -3.383472    0.496882   -0.071925
  H     -3.589112    2.451317   -0.951514
  H     -3.589270    2.450933    0.808197
  H     -2.287033    0.515141   -0.071971
  H     -3.711941   -0.060186    0.814463
  H     -3.712011   -0.060099   -0.958353

----------------------------
CARTESIAN COORDINATES (A.U.)
----------------------------
  NO LB      ZA    FRAG     MASS         X           Y           Z
   0 C     6.0000    0    12.011  -10.356489    3.622661   -0.135687
   1 C     6.0000    0    12.011   -7.480889    3.601016   -0.135734
   2 H     1.0000    0     1.008  -11.093619    5.559181   -0.135369
   3 H     1.0000    0     1.008  -11.102969    2.654070   -1.810193
   4 H     1.0000    0     1.008  -11.102328    2.653444    1.538766
   5 C     6.0000    0    12.011   -6.393836    0.938971   -0.135919
   6 H     1.0000    0     1.008   -6.782439    4.632318   -1.798102
   7 H     1.0000    0     1.008   -6.782736    4.631592    1.527271
   8 H     1.0000    0     1.008   -4.321866    0.973475   -0.136005
   9 H     1.0000    0     1.008   -7.014553   -0.113735    1.539113
  10 H     1.0000    0     1.008   -7.014684   -0.113571   -1.811024

--------------------------------
INTERNAL COORDINATES (ANGSTROEM)
--------------------------------
 C      0   0   0     0.000000000000     0.00000000     0.00000000
 C      1   0   0     1.521745073955     0.00000000     0.00000000
 H      1   2   0     1.096491979654   111.27043092     0.00000000
 H      1   2   3     1.097245068599   110.88368460   120.19858256
 H      1   2   3     1.097255398819   110.86597865   239.80255116
 C      2   1   3     1.521618415353   112.64404383   179.99452333
 H      2   1   3     1.099222306980   109.42102796   301.93570488
 H      2   1   3     1.099248958713   109.41043607    58.07440243
 H      6   2   1     1.096591096513   111.25873263   179.99832937
 H      6   2   1     1.097224450435   110.90394168   300.14079743
 H      6   2   1     1.097232809750   110.90417989    59.85631172

---------------------------
INTERNAL COORDINATES (A.U.)
---------------------------
 C      0   0   0     0.000000000000     0.00000000     0.00000000
 C      1   0   0     2.875681435418     0.00000000     0.00000000
 H      1   2   0     2.072069549588   111.27043092     0.00000000
 H      1   2   3     2.073492681448   110.88368460   120.19858256
 H      1   2   3     2.073512202734   110.86597865   239.80255116
 C      2   1   3     2.875442085349   112.64404383   179.99452333
 H      2   1   3     2.077229120490   109.42102796   301.93570488
 H      2   1   3     2.077279484966   109.41043607    58.07440243
 H      6   2   1     2.072256853307   111.25873263   179.99832937
 H      6   2   1     2.073453718765   110.90394168   300.14079743
 H      6   2   1     2.073469515580   110.90417989    59.85631172



           ************************************************************
           *        Program running with 12 parallel MPI-processes    *
           *              working on a common directory               *
           ************************************************************
------------------------------------------------------------------------------
                   ___                                                        
                  /   \      - P O W E R E D   B Y -                         
                 /     \                                                     
                 |  |  |   _    _      __       _____    __    __             
                 |  |  |  | |  | |    /  \     |  _  \  |  |  /  |          
                  \  \/   | |  | |   /    \    | | | |  |  | /  /          
                 / \  \   | |__| |  /  /\  \   | |_| |  |  |/  /          
                |  |  |   |  __  | /  /__\  \  |    /   |      \           
                |  |  |   | |  | | |   __   |  |    \   |  |\   \          
                \     /   | |  | | |  |  |  |  | |\  \  |  | \   \       
                 \___/    |_|  |_| |__|  |__|  |_| \__\ |__|  \__/        
                                                                              
                      - O R C A' S   B I G   F R I E N D -                    
                                      &                                       
                       - I N T E G R A L  F E E D E R -                       
                                                                              
 v1 FN, 2020, v2 2021                                                         
------------------------------------------------------------------------------


Reading SHARK input file propane_opt.SHARKINP.tmp ... ok
----------------------
SHARK INTEGRAL PACKAGE
----------------------

Number of atoms                             ...     11
Number of basis functions                   ...     70
Number of shells                            ...     40
Maximum angular momentum                    ...      2
Integral batch strategy                     ... SHARK/LIBINT Hybrid
RI-J (if used) integral strategy            ... SPLIT-RIJ (Revised 2003 algorithm where possible)
Printlevel                                  ...      1
Contraction scheme used                     ... SEGMENTED contraction
Coulomb Range Separation                    ... NOT USED
Exchange Range Separation                   ... NOT USED
Finite Nucleus Model                        ... NOT USED
Auxiliary Coulomb fitting basis             ... NOT available
Auxiliary J/K fitting basis                 ... NOT available
Auxiliary Correlation fitting basis         ... NOT available
Auxiliary 'external' fitting basis          ... NOT available
Integral threshold                          ...     2.500000e-11
Primitive cut-off                           ...     2.500000e-12
Primitive pair pre-selection threshold      ...     2.500000e-12

Calculating pre-screening integrals         ... done (  0.0 sec) Dimension = 40
Organizing shell pair data                  ... done (  0.0 sec)
Shell pair information
Total number of shell pairs                 ...       820
Shell pairs after pre-screening             ...       819
Total number of primitive shell pairs       ...      3573
Primitive shell pairs kept                  ...      2938
          la=0 lb=0:    405 shell pairs
          la=1 lb=0:    252 shell pairs
          la=1 lb=1:     45 shell pairs
          la=2 lb=0:     84 shell pairs
          la=2 lb=1:     27 shell pairs
          la=2 lb=2:      6 shell pairs

Calculating one electron integrals          ... done (  0.0 sec)
Calculating Nuclear repulsion               ... done (  0.0 sec) ENN=     82.626359789413 Eh

SHARK setup successfully completed in   0.1 seconds

Maximum memory used throughout the entire GTOINT-calculation: 7.6 MB


           ************************************************************
           *        Program running with 12 parallel MPI-processes    *
           *              working on a common directory               *
           ************************************************************

Diagonalization of the overlap matrix:
Smallest eigenvalue                        ... 2.126e-04
Time for diagonalization                   ...    0.002 sec
Threshold for overlap eigenvalues          ... 1.000e-08
Number of eigenvalues below threshold      ... 0
Time for construction of square roots      ...    0.005 sec
Total time needed                          ...    0.008 sec

-------------------
DFT GRID GENERATION
-------------------

General Integration Accuracy     IntAcc      ... 4.388
Radial Grid Type                 RadialGrid  ... OptM3 with GC (2021)
Angular Grid (max. ang.)         AngularGrid ... 4 (Lebedev-302)
Angular grid pruning method      GridPruning ... 4 (adaptive)
Weight generation scheme         WeightScheme... Becke
Basis function cutoff            BFCut       ... 1.0000e-11
Integration weight cutoff        WCut        ... 1.0000e-14
Angular grids for H and He will be reduced by one unit
Partially contracted basis set               ... off
Rotationally invariant grid construction     ... off

Total number of grid points                  ...    44856
Total number of batches                      ...      706
Average number of points per batch           ...       63
Average number of grid points per atom       ...     4078
Time for grid setup =    0.199 sec

--------------
SCF ITERATIONS
--------------
ITER       Energy         Delta-E        Max-DP      RMS-DP      [F,P]     Damp
               ***  Starting incremental Fock matrix formation  ***
  0   -118.9858709270   0.000000000000 0.00300767  0.00023864  0.0077766 0.7000
                      *** Initiating the SOSCF procedure ***
                      *** Re-Reading the Fockian *** 
                      *** Removing any level shift *** 
ITER      Energy       Delta-E        Grad      Rot      Max-DP    RMS-DP
  1   -118.98610367  -0.0002327417  0.000775  0.000775  0.007063  0.000631
               *** Restarting incremental Fock matrix formation ***
  2   -118.98650315  -0.0003994774  0.001708  0.002189  0.005029  0.000311
  3   -118.98650098   0.0000021673  0.001775  0.001154  0.002641  0.000148
  4   -118.98655884  -0.0000578613  0.000110  0.000116  0.000239  0.000020
  5   -118.98655899  -0.0000001518  0.000064  0.000051  0.000104  0.000007
  6   -118.98655907  -0.0000000755  0.000017  0.000017  0.000048  0.000002
  7   -118.98655907  -0.0000000023  0.000011  0.000009  0.000017  0.000001
                 **** Energy Check signals convergence ****
              ***Rediagonalizing the Fockian in SOSCF/NRSCF***

               *****************************************************
               *                     SUCCESS                       *
               *           SCF CONVERGED AFTER   8 CYCLES          *
               *****************************************************

Total Energy       :         -118.98655907 Eh           -3237.78888 eV
  Last Energy change         ...   -1.7315e-09  Tolerance :   1.0000e-08
  Last MAX-Density change    ...    1.0627e-05  Tolerance :   1.0000e-07
             **** THE GBW FILE WAS UPDATED (propane_opt.gbw) ****
             **** DENSITY propane_opt.scfp WAS UPDATED ****
             **** ENERGY FILE WAS UPDATED (propane_opt.en.tmp) ****
             **** THE GBW FILE WAS UPDATED (propane_opt.gbw) ****
             **** DENSITY propane_opt.scfp WAS UPDATED ****
Total SCF time: 0 days 0 hours 0 min 2 sec 

Maximum memory used throughout the entire SCF-calculation: 228.2 MB


-------------------------------------------------------------------------------
                          DFT DISPERSION CORRECTION                            
                                                                               
                              DFTD3 V3.1  Rev 1                                
                          USING Becke-Johnson damping                          
-------------------------------------------------------------------------------
-------------------------   ----------------
Dispersion correction           -0.004966826
-------------------------   ----------------


-------------------------   --------------------
FINAL SINGLE POINT ENERGY      -118.991525897394
-------------------------   --------------------



           ************************************************************
           *        Program running with 12 parallel MPI-processes    *
           *              working on a common directory               *
           ************************************************************
------------------------------------------------------------------------------
                         ORCA SCF GRADIENT CALCULATION
------------------------------------------------------------------------------

Gradient of the Kohn-Sham DFT energy:
Kohn-Sham wavefunction type      ... RKS
Hartree-Fock exchange scaling    ...    0.250
Number of operators              ...    1
Number of atoms                  ...   11
Basis set dimensions             ...   70
Integral neglect threshold       ... 2.5e-11
Integral primitive cutoff        ... 2.5e-12
SHARK Integral package           ... ON

Nuc. rep. gradient       (SHARK) ... done (  0.0 sec)
HCore & Overlap gradient (SHARK) ... done (  0.0 sec)
Two-Electron gradient    (SHARK) ... done (  0.2 sec)
Exchange-correlation gradient    ... done
Dispersion correction            ... done

------------------
CARTESIAN GRADIENT
------------------

   1   C   :    0.000266658   -0.000680342   -0.000007573
   2   C   :   -0.000763962   -0.001329630   -0.000023009
   3   H   :    0.000725465    0.000567731   -0.000008249
   4   H   :    0.000467355   -0.000088860   -0.000229293
   5   H   :    0.000489131   -0.000103681    0.000238379
   6   C   :   -0.000974678    0.000016410    0.000015280
   7   H   :   -0.000056756   -0.000059746   -0.000625559
   8   H   :   -0.000055376   -0.000064988    0.000644087
   9   H   :    0.000283257    0.000852527   -0.000000775
  10   H   :   -0.000189143    0.000445642    0.000273196
  11   H   :   -0.000191951    0.000444936   -0.000276485

Difference to translation invariance:
           :   -0.0000000000    0.0000000000   -0.0000000000

Difference to rotation invariance:
           :   -0.0000002465   -0.0000003209   -0.0000289111

Norm of the cartesian gradient     ...    0.0027420012
RMS gradient                       ...    0.0004773211
MAX gradient                       ...    0.0013296301

-------
TIMINGS
-------

Total SCF gradient time            ...        0.395 sec

One electron gradient       ....       0.009 sec  (  2.2%)
Two electron gradient       ....       0.154 sec  ( 39.0%)
XC gradient                 ....       0.095 sec  ( 24.1%)

Maximum memory used throughout the entire SCFGRAD-calculation: 24.1 MB
------------------------------------------------------------------------------
                         ORCA GEOMETRY RELAXATION STEP
------------------------------------------------------------------------------

Reading the OPT-File                    .... done
Getting information on internals        .... done
Copying old internal coords+grads       .... done
Making the new internal coordinates     .... (new redundants).... done
Validating the new internal coordinates .... (new redundants).... done
Calculating the B-matrix                .... done
Calculating the G,G- and P matrices     .... done
Transforming gradient to internals      .... done
Projecting the internal gradient        .... done
Number of atoms                         ....  11
Number of internal coordinates          ....  46
Current Energy                          ....  -118.991525897 Eh
Current gradient norm                   ....     0.002742001 Eh/bohr
Maximum allowed component of the step   ....  0.300
Current trust radius                    ....  0.300
Updating the Hessian (BFGS)             .... done
Forming the augmented Hessian           .... done
Diagonalizing the augmented Hessian     .... done
Last element of RFO vector              ....  0.999910424
Lowest eigenvalues of augmented Hessian:
 -0.000047230  0.013004235  0.013052885  0.077632199  0.089000139
Length of the computed step             ....  0.013385672
The final length of the internal step   ....  0.013385672
Converting the step to cartesian space:
 Initial RMS(Int)=    0.0019736097
Transforming coordinates:
 Iter   0:  RMS(Cart)=    0.0040949465 RMS(Int)=    0.0019745834
 Iter   1:  RMS(Cart)=    0.0000048225 RMS(Int)=    0.0000036057
 Iter   2:  RMS(Cart)=    0.0000000124 RMS(Int)=    0.0000000096
done
Storing new coordinates                 .... done

                                .--------------------.
          ----------------------|Geometry convergence|-------------------------
          Item                value                   Tolerance       Converged
          ---------------------------------------------------------------------
          Energy change      -0.0026479270            0.0000050000      NO
          RMS gradient        0.0005608663            0.0001000000      NO
          MAX gradient        0.0020355730            0.0003000000      NO
          RMS step            0.0019736097            0.0020000000      YES
          MAX step            0.0054523834            0.0040000000      NO
          ........................................................
          Max(Bonds)      0.0029      Max(Angles)    0.23
          Max(Dihed)        0.14      Max(Improp)    0.00
          ---------------------------------------------------------------------

The optimization has not yet converged - more geometry cycles are needed


    ---------------------------------------------------------------------------
                         Redundant Internal Coordinates
                            (Angstroem and degrees)

        Definition                    Value    dE/dq     Step     New-Value
    ----------------------------------------------------------------------------
     1. B(C   1,C   0)                1.5217 -0.001950  0.0028    1.5245   
     2. B(H   2,C   0)                1.0965  0.000272 -0.0006    1.0959   
     3. B(H   3,C   0)                1.0972  0.000059 -0.0002    1.0970   
     4. B(H   4,C   0)                1.0973  0.000065 -0.0002    1.0970   
     5. B(C   5,C   1)                1.5216 -0.002036  0.0029    1.5245   
     6. B(H   6,C   1)                1.0992  0.000452 -0.0009    1.0983   
     7. B(H   7,C   1)                1.0992  0.000465 -0.0009    1.0983   
     8. B(H   8,C   5)                1.0966  0.000298 -0.0006    1.0960   
     9. B(H   9,C   5)                1.0972  0.000051 -0.0002    1.0970   
    10. B(H  10,C   5)                1.0972  0.000055 -0.0002    1.0970   
    11. A(H   2,C   0,H   4)          107.98  0.000741   -0.14    107.85   
    12. A(C   1,C   0,H   2)          111.27 -0.001049    0.23    111.50   
    13. A(H   3,C   0,H   4)          107.72  0.000559   -0.14    107.57   
    14. A(H   2,C   0,H   3)          107.98  0.000720   -0.13    107.85   
    15. A(C   1,C   0,H   3)          110.88 -0.000411    0.08    110.96   
    16. A(C   1,C   0,H   4)          110.87 -0.000453    0.09    110.95   
    17. A(C   0,C   1,C   5)          112.64  0.000022    0.04    112.69   
    18. A(H   6,C   1,H   7)          106.34  0.000245   -0.15    106.19   
    19. A(C   5,C   1,H   7)          109.41 -0.000061    0.03    109.43   
    20. A(C   0,C   1,H   7)          109.41 -0.000071    0.03    109.44   
    21. A(C   5,C   1,H   6)          109.42 -0.000051    0.02    109.44   
    22. A(C   0,C   1,H   6)          109.42 -0.000070    0.03    109.45   
    23. A(H   8,C   5,H   9)          107.93  0.000689   -0.12    107.81   
    24. A(C   1,C   5,H   9)          110.90 -0.000427    0.08    110.98   
    25. A(C   1,C   5,H   8)          111.26 -0.001030    0.23    111.49   
    26. A(H   9,C   5,H  10)          107.77  0.000614   -0.17    107.60   
    27. A(H   8,C   5,H  10)          107.93  0.000690   -0.12    107.81   
    28. A(C   1,C   5,H  10)          110.90 -0.000430    0.08    110.98   
    29. D(H   7,C   1,C   0,H   2)     58.07  0.000109   -0.08     58.00   
    30. D(H   6,C   1,C   0,H   2)    -58.06 -0.000105    0.07    -57.99   
    31. D(H   7,C   1,C   0,H   4)    -62.12  0.000177   -0.11    -62.24   
    32. D(H   7,C   1,C   0,H   3)    178.27  0.000042   -0.04    178.23   
    33. D(C   5,C   1,C   0,H   4)     59.80  0.000064   -0.03     59.76   
    34. D(H   6,C   1,C   0,H   4)   -178.26 -0.000037    0.04   -178.22   
    35. D(C   5,C   1,C   0,H   3)    -59.81 -0.000072    0.04    -59.77   
    36. D(C   5,C   1,C   0,H   2)    179.99 -0.000005    0.00    180.00   
    37. D(H   6,C   1,C   0,H   3)     62.13 -0.000172    0.11     62.24   
    38. D(H   9,C   5,C   1,H   6)    178.20  0.000010   -0.02    178.18   
    39. D(H   9,C   5,C   1,C   0)    -59.86 -0.000101    0.06    -59.80   
    40. D(H   8,C   5,C   1,H   7)    -58.08 -0.000118    0.08    -58.00   
    41. D(H   8,C   5,C   1,H   6)     58.06  0.000113   -0.08     57.98   
    42. D(H   9,C   5,C   1,H   7)     62.06 -0.000221    0.14     62.20   
    43. D(H   8,C   5,C   1,C   0)    180.00  0.000002   -0.00    180.00   
    44. D(H  10,C   5,C   1,H   7)   -178.22 -0.000013    0.03   -178.20   
    45. D(H  10,C   5,C   1,H   6)    -62.09  0.000218   -0.13    -62.22   
    46. D(H  10,C   5,C   1,C   0)     59.86  0.000107   -0.06     59.80   
    ----------------------------------------------------------------------------

         *************************************************************
         *                GEOMETRY OPTIMIZATION CYCLE   3            *
         *************************************************************
---------------------------------
CARTESIAN COORDINATES (ANGSTROEM)
---------------------------------
  C     -5.482249    1.918942   -0.071778
  C     -3.957781    1.907023   -0.071792
  H     -5.875808    2.941757   -0.071627
  H     -5.878762    1.406314   -0.956927
  H     -5.878574    1.406050    0.813292
  C     -3.380855    0.495900   -0.071933
  H     -3.587838    2.453239   -0.949900
  H     -3.587956    2.452913    0.806566
  H     -2.284985    0.510259   -0.071986
  H     -3.709054   -0.062760    0.813314
  H     -3.709136   -0.062637   -0.957228

----------------------------
CARTESIAN COORDINATES (A.U.)
----------------------------
  NO LB      ZA    FRAG     MASS         X           Y           Z
   0 C     6.0000    0    12.011  -10.359950    3.626275   -0.135641
   1 C     6.0000    0    12.011   -7.479123    3.603751   -0.135667
   2 H     1.0000    0     1.008  -11.103669    5.559114   -0.135356
   3 H     1.0000    0     1.008  -11.109251    2.657548   -1.808329
   4 H     1.0000    0     1.008  -11.108895    2.657049    1.536898
   5 C     6.0000    0    12.011   -6.388891    0.937115   -0.135933
   6 H     1.0000    0     1.008   -6.780032    4.635950   -1.795051
   7 H     1.0000    0     1.008   -6.780253    4.635334    1.524188
   8 H     1.0000    0     1.008   -4.317996    0.964250   -0.136035
   9 H     1.0000    0     1.008   -7.009096   -0.118599    1.536941
  10 H     1.0000    0     1.008   -7.009251   -0.118366   -1.808899

--------------------------------
INTERNAL COORDINATES (ANGSTROEM)
--------------------------------
 C      0   0   0     0.000000000000     0.00000000     0.00000000
 C      1   0   0     1.524514903890     0.00000000     0.00000000
 H      1   2   0     1.095918798966   111.49370446     0.00000000
 H      1   2   3     1.097040735791   110.96312071   120.23444907
 H      1   2   3     1.097032255822   110.95354376   239.76696178
 C      2   1   3     1.524503692367   112.68475202   179.99726683
 H      2   1   3     1.098309445956   109.44719501   302.01007190
 H      2   1   3     1.098306930433   109.44002797    57.99623949
 H      6   2   1     1.095964279940   111.48610085   179.99740490
 H      6   2   1     1.097030799504   110.98245678   300.19638499
 H      6   2   1     1.097032481163   110.98348338    59.79821840

---------------------------
INTERNAL COORDINATES (A.U.)
---------------------------
 C      0   0   0     0.000000000000     0.00000000     0.00000000
 C      1   0   0     2.880915655433     0.00000000     0.00000000
 H      1   2   0     2.070986395062   111.49370446     0.00000000
 H      1   2   3     2.073106548400   110.96312071   120.23444907
 H      1   2   3     2.073090523581   110.95354376   239.76696178
 C      2   1   3     2.880894468726   112.68475202   179.99726683
 H      2   1   3     2.075504063156   109.44719501   302.01007190
 H      2   1   3     2.075499309506   109.44002797    57.99623949
 H      6   2   1     2.071072341646   111.48610085   179.99740490
 H      6   2   1     2.073087771539   110.98245678   300.19638499
 H      6   2   1     2.073090949413   110.98348338    59.79821840



           ************************************************************
           *        Program running with 12 parallel MPI-processes    *
           *              working on a common directory               *
           ************************************************************
------------------------------------------------------------------------------
                   ___                                                        
                  /   \      - P O W E R E D   B Y -                         
                 /     \                                                     
                 |  |  |   _    _      __       _____    __    __             
                 |  |  |  | |  | |    /  \     |  _  \  |  |  /  |          
                  \  \/   | |  | |   /    \    | | | |  |  | /  /          
                 / \  \   | |__| |  /  /\  \   | |_| |  |  |/  /          
                |  |  |   |  __  | /  /__\  \  |    /   |      \           
                |  |  |   | |  | | |   __   |  |    \   |  |\   \          
                \     /   | |  | | |  |  |  |  | |\  \  |  | \   \       
                 \___/    |_|  |_| |__|  |__|  |_| \__\ |__|  \__/        
                                                                              
                      - O R C A' S   B I G   F R I E N D -                    
                                      &                                       
                       - I N T E G R A L  F E E D E R -                       
                                                                              
 v1 FN, 2020, v2 2021                                                         
------------------------------------------------------------------------------


Reading SHARK input file propane_opt.SHARKINP.tmp ... ok
----------------------
SHARK INTEGRAL PACKAGE
----------------------

Number of atoms                             ...     11
Number of basis functions                   ...     70
Number of shells                            ...     40
Maximum angular momentum                    ...      2
Integral batch strategy                     ... SHARK/LIBINT Hybrid
RI-J (if used) integral strategy            ... SPLIT-RIJ (Revised 2003 algorithm where possible)
Printlevel                                  ...      1
Contraction scheme used                     ... SEGMENTED contraction
Coulomb Range Separation                    ... NOT USED
Exchange Range Separation                   ... NOT USED
Finite Nucleus Model                        ... NOT USED
Auxiliary Coulomb fitting basis             ... NOT available
Auxiliary J/K fitting basis                 ... NOT available
Auxiliary Correlation fitting basis         ... NOT available
Auxiliary 'external' fitting basis          ... NOT available
Integral threshold                          ...     2.500000e-11
Primitive cut-off                           ...     2.500000e-12
Primitive pair pre-selection threshold      ...     2.500000e-12

Calculating pre-screening integrals         ... done (  0.0 sec) Dimension = 40
Organizing shell pair data                  ... done (  0.0 sec)
Shell pair information
Total number of shell pairs                 ...       820
Shell pairs after pre-screening             ...       819
Total number of primitive shell pairs       ...      3573
Primitive shell pairs kept                  ...      2938
          la=0 lb=0:    405 shell pairs
          la=1 lb=0:    252 shell pairs
          la=1 lb=1:     45 shell pairs
          la=2 lb=0:     84 shell pairs
          la=2 lb=1:     27 shell pairs
          la=2 lb=2:      6 shell pairs

Calculating one electron integrals          ... done (  0.0 sec)
Calculating Nuclear repulsion               ... done (  0.0 sec) ENN=     82.536370931794 Eh

SHARK setup successfully completed in   0.1 seconds

Maximum memory used throughout the entire GTOINT-calculation: 7.6 MB


           ************************************************************
[...]
          la=2 lb=1:     27 shell pairs
          la=2 lb=2:      6 shell pairs

Calculating one electron integrals          ... done (  0.0 sec)
Calculating Nuclear repulsion               ... done (  0.0 sec) ENN=     82.528963813256 Eh

SHARK setup successfully completed in   0.1 seconds

Maximum memory used throughout the entire GTOINT-calculation: 7.6 MB


           ************************************************************
           *        Program running with 12 parallel MPI-processes    *
           *              working on a common directory               *
           ************************************************************
-------------------------------------------------------------------------------
                                 ORCA SCF
-------------------------------------------------------------------------------

------------
SCF SETTINGS
------------
Hamiltonian:
 Density Functional     Method          .... DFT(GTOs)
 Exchange Functional    Exchange        .... PBE
   PBE kappa parameter   XKappa         ....  0.804000
   PBE mue parameter    XMuePBE         ....  0.219520
 Correlation Functional Correlation     .... PBE
   PBE beta parameter  CBetaPBE         ....  0.066725
 LDA part of GGA corr.  LDAOpt          .... PW91-LDA
 Gradients option       PostSCFGGA      .... off
 Hybrid DFT is turned on
   Fraction HF Exchange ScalHFX         ....  0.250000
   Scaling of DF-GGA-X  ScalDFX         ....  0.750000
   Scaling of DF-GGA-C  ScalDFC         ....  1.000000
   Scaling of DF-LDA-C  ScalLDAC        ....  1.000000
   Perturbative correction              ....  0.000000
   Density functional embedding theory  .... OFF
   NL short-range parameter             ....  6.900000


General Settings:
 Integral files         IntName         .... propane_charge
 Hartree-Fock type      HFTyp           .... RHF
 Total Charge           Charge          ....    0
 Multiplicity           Mult            ....    1
 Number of Electrons    NEL             ....   26
 Basis Dimension        Dim             ....   70
 Nuclear Repulsion      ENuc            ....     82.5289638133 Eh

Convergence Acceleration:
 DIIS                   CNVDIIS         .... on
   Start iteration      DIISMaxIt       ....    12
   Startup error        DIISStart       ....  0.200000
   # of expansion vecs  DIISMaxEq       ....     5
   Bias factor          DIISBfac        ....   1.050
   Max. coefficient     DIISMaxC        ....  10.000
 Trust-Rad. Augm. Hess. CNVTRAH         .... auto
   Auto Start mean grad. ratio tolernc. ....  1.125000
   Auto Start start iteration           ....     1
   Auto Start num. interpolation iter.  ....    10
   Max. Number of Micro iterations      ....    16
   Max. Number of Macro iterations      .... Maxiter - #DIIS iter
   Number of Davidson start vectors     ....     2
   Converg. threshold I  (grad. norm)   ....   5.000e-05
   Converg. threshold II (energy diff.) ....   1.000e-06
   Grad. Scal. Fac. for Micro threshold ....   0.100
   Minimum threshold for Micro iter.    ....   0.010
   NR start threshold (gradient norm)   ....   0.001
   Initial trust radius                 ....   0.400
   Minimum AH scaling param. (alpha)    ....   1.000
   Maximum AH scaling param. (alpha)    .... 1000.000
   Orbital update algorithm             .... Taylor
   White noise on init. David. guess    .... on
   Maximum white noise                  ....   0.010
   Quad. conv. algorithm                .... NR
 SOSCF                  CNVSOSCF        .... on
   Start iteration      SOSCFMaxIt      ....   150
   Startup grad/error   SOSCFStart      ....  0.003300
 Level Shifting         CNVShift        .... on
   Level shift para.    LevelShift      ....    0.2500
   Turn off err/grad.   ShiftErr        ....    0.0010
 Zerner damping         CNVZerner       .... off
 Static damping         CNVDamp         .... on
   Fraction old density DampFac         ....    0.7000
   Max. Damping (<1)    DampMax         ....    0.9800
   Min. Damping (>=0)   DampMin         ....    0.0000
   Turn off err/grad.   DampErr         ....    0.1000
 Fernandez-Rico         CNVRico         .... off

SCF Procedure:
 Maximum # iterations   MaxIter         ....   125
 SCF integral mode      SCFMode         .... Direct
   Integral package                     .... SHARK and LIBINT hybrid scheme
 Reset frequency        DirectResetFreq ....    20
 Integral Threshold     Thresh          ....  1.000e-10 Eh
 Primitive CutOff       TCut            ....  1.000e-11 Eh

Convergence Tolerance:
 Convergence Check Mode ConvCheckMode   .... Total+1el-Energy
 Convergence forced     ConvForced      .... 0
 Energy Change          TolE            ....  1.000e-06 Eh
 1-El. energy change                    ....  1.000e-03 Eh
 Orbital Gradient       TolG            ....  5.000e-05
 Orbital Rotation angle TolX            ....  5.000e-05
 DIIS Error             TolErr          ....  1.000e-06


Diagonalization of the overlap matrix:
Smallest eigenvalue                        ... 2.150e-04
Time for diagonalization                   ...    0.002 sec
Threshold for overlap eigenvalues          ... 1.000e-08
Number of eigenvalues below threshold      ... 0
Time for construction of square roots      ...    0.005 sec
Total time needed                          ...    0.007 sec

---------------------
INITIAL GUESS: MOREAD
---------------------
Guess MOs are being read from file: propane_nbo.gbw
Input Geometry matches current geometry (good)
Input basis set matches current basis set (good)
MOs were renormalized
MOs were reorthogonalized (Cholesky)
                      ------------------
                      INITIAL GUESS DONE (   0.0 sec)
                      ------------------
-------------------
DFT GRID GENERATION
-------------------

General Integration Accuracy     IntAcc      ... 4.388
Radial Grid Type                 RadialGrid  ... OptM3 with GC (2021)
Angular Grid (max. ang.)         AngularGrid ... 4 (Lebedev-302)
Angular grid pruning method      GridPruning ... 4 (adaptive)
Weight generation scheme         WeightScheme... Becke
Basis function cutoff            BFCut       ... 1.0000e-10
Integration weight cutoff        WCut        ... 1.0000e-14
Angular grids for H and He will be reduced by one unit
Partially contracted basis set               ... off
Rotationally invariant grid construction     ... off

Total number of grid points                  ...    44866
Total number of batches                      ...      706
Average number of points per batch           ...       63
Average number of grid points per atom       ...     4079
Time for grid setup =    0.199 sec

--------------
SCF ITERATIONS
--------------
ITER       Energy         Delta-E        Max-DP      RMS-DP      [F,P]     Damp
               ***  Starting incremental Fock matrix formation  ***
                      *** Initiating the SOSCF procedure ***
                      *** Re-Reading the Fockian *** 
                      *** Removing any level shift *** 
ITER      Energy       Delta-E        Grad      Rot      Max-DP    RMS-DP
  0   -118.98659601 -118.9865960054  0.000000  0.000000  0.000002  0.000000
               *** Restarting incremental Fock matrix formation ***
                 **** Energy Check signals convergence ****
              ***Rediagonalizing the Fockian in SOSCF/NRSCF***

               *****************************************************
               *                     SUCCESS                       *
               *           SCF CONVERGED AFTER   1 CYCLES          *
               *****************************************************


----------------
TOTAL SCF ENERGY
----------------

Total Energy       :         -118.98659601 Eh           -3237.78988 eV

Components:
Nuclear Repulsion  :           82.52896381 Eh            2245.72728 eV
Electronic Energy  :         -201.51555982 Eh           -5483.51716 eV
One Electron Energy:         -321.65477178 Eh           -8752.67132 eV
Two Electron Energy:          120.13921196 Eh            3269.15416 eV

Virial components:
Potential Energy   :         -237.25046418 Eh           -6455.91334 eV
Kinetic Energy     :          118.26386818 Eh            3218.12346 eV
Virial Ratio       :            2.00611115


DFT components:
N(Alpha)           :       12.999984356646 electrons
N(Beta)            :       12.999984356646 electrons
N(Total)           :       25.999968713292 electrons
E(X)               :      -13.691809679472 Eh       
E(C)               :       -0.825013768792 Eh       
E(XC)              :      -14.516823448264 Eh       
DFET-embed. en.    :        0.000000000000 Eh       

---------------
SCF CONVERGENCE
---------------

  Last Energy change         ...   -1.1937e-12  Tolerance :   1.0000e-06
  Last MAX-Density change    ...    1.4307e-06  Tolerance :   1.0000e-05
  Last RMS-Density change    ...    6.6350e-08  Tolerance :   1.0000e-06
  Last Orbital Gradient      ...    1.6096e-07  Tolerance :   5.0000e-05
  Last Orbital Rotation      ...    2.6197e-07  Tolerance :   5.0000e-05

             **** THE GBW FILE WAS UPDATED (propane_charge.gbw) ****
             **** DENSITY propane_charge.scfp WAS UPDATED ****
             **** ENERGY FILE WAS UPDATED (propane_charge.en.tmp) ****
             **** THE GBW FILE WAS UPDATED (propane_charge.gbw) ****
             **** DENSITY propane_charge.scfp WAS UPDATED ****
----------------
ORBITAL ENERGIES
----------------

  NO   OCC          E(Eh)            E(eV) 
   0   2.0000     -10.222492      -278.1682 
   1   2.0000     -10.212233      -277.8890 
   2   2.0000     -10.212204      -277.8882 
   3   2.0000      -0.804202       -21.8834 
   4   2.0000      -0.700128       -19.0515 
   5   2.0000      -0.600917       -16.3518 
   6   2.0000      -0.470205       -12.7949 
   7   2.0000      -0.449618       -12.2347 
   8   2.0000      -0.409743       -11.1497 
   9   2.0000      -0.390862       -10.6359 
  10   2.0000      -0.347988        -9.4692 
  11   2.0000      -0.346628        -9.4322 
  12   2.0000      -0.336046        -9.1443 
  13   0.0000       0.027005         0.7349 
  14   0.0000       0.041681         1.1342 
  15   0.0000       0.045983         1.2513 
  16   0.0000       0.055748         1.5170 
  17   0.0000       0.080510         2.1908 
  18   0.0000       0.088205         2.4002 
  19   0.0000       0.093325         2.5395 
  20   0.0000       0.096292         2.6202 
  21   0.0000       0.104632         2.8472 
  22   0.0000       0.125231         3.4077 
  23   0.0000       0.135493         3.6869 
  24   0.0000       0.160329         4.3628 
  25   0.0000       0.209102         5.6900 
  26   0.0000       0.211417         5.7530 
  27   0.0000       0.212222         5.7748 
  28   0.0000       0.260007         7.0751 
  29   0.0000       0.264227         7.1900 
  30   0.0000       0.265581         7.2268 
  31   0.0000       0.293948         7.9987 
  32   0.0000       0.322721         8.7817 
  33   0.0000       0.345035         9.3889 
  34   0.0000       0.358211         9.7474 
  35   0.0000       0.631081        17.1726 
  36   0.0000       0.648519        17.6471 
  37   0.0000       0.668033        18.1781 
  38   0.0000       0.674453        18.3528 
  39   0.0000       0.705507        19.1978 
  40   0.0000       0.728438        19.8218 
  41   0.0000       0.758895        20.6506 
  42   0.0000       0.759896        20.6778 
  43   0.0000       0.852680        23.2026 
  44   0.0000       0.955321        25.9956 
  45   0.0000       0.972699        26.4685 
  46   0.0000       0.993971        27.0473 
  47   0.0000       1.010872        27.5072 
  48   0.0000       1.042347        28.3637 
  49   0.0000       1.077586        29.3226 
  50   0.0000       1.137241        30.9459 
  51   0.0000       1.142046        31.0767 
  52   0.0000       1.157167        31.4881 
  53   0.0000       1.430372        38.9224 
  54   0.0000       1.472181        40.0601 
  55   0.0000       1.497180        40.7403 
  56   0.0000       1.598787        43.5052 
  57   0.0000       1.765610        48.0447 
  58   0.0000       1.913159        52.0597 
  59   0.0000       1.960790        53.3558 
  60   0.0000       2.016048        54.8594 
  61   0.0000       2.063632        56.1543 
  62   0.0000       2.137459        58.1632 
  63   0.0000       2.267173        61.6929 
  64   0.0000       2.289820        62.3092 
  65   0.0000       2.366491        64.3955 
  66   0.0000       2.424202        65.9659 
  67   0.0000       2.451088        66.6975 
  68   0.0000       2.628040        71.5126 
  69   0.0000       2.724120        74.1271 

------------------
HIRSHFELD ANALYSIS
------------------

Total integrated alpha density =     12.999984357
Total integrated beta density  =     12.999984357

  ATOM     CHARGE      SPIN    
   0 C   -0.080974    0.000000
   1 C   -0.041775    0.000000
   2 H    0.026889    0.000000
   3 H    0.025293    0.000000
   4 H    0.025293    0.000000
   5 C   -0.080972    0.000000
   6 H    0.024433    0.000000
   7 H    0.024433    0.000000
   8 H    0.026858    0.000000
   9 H    0.025277    0.000000
  10 H    0.025277    0.000000

  TOTAL   0.000031    0.000000

-------
TIMINGS
-------

Total SCF time: 0 days 0 hours 0 min 0 sec 

Total time                  ....       0.767 sec
Sum of individual times     ....       0.533 sec  ( 69.4%)

Fock matrix formation       ....       0.275 sec  ( 35.9%)
  XC integration            ....       0.184 sec  ( 66.7% of F)
    Basis function eval.    ....       0.021 sec  ( 11.3% of XC)
    Density eval.           ....       0.008 sec  (  4.3% of XC)
    XC-Functional eval.     ....       0.008 sec  (  4.3% of XC)
    XC-Potential eval.      ....       0.006 sec  (  3.2% of XC)
Diagonalization             ....       0.004 sec  (  0.5%)
Density matrix formation    ....       0.000 sec  (  0.1%)
Population analysis         ....       0.044 sec  (  5.7%)
Initial guess               ....       0.002 sec  (  0.3%)
Orbital Transformation      ....       0.000 sec  (  0.0%)
Orbital Orthonormalization  ....       0.001 sec  (  0.1%)
DIIS solution               ....       0.002 sec  (  0.3%)
SOSCF solution              ....       0.006 sec  (  0.7%)
Grid generation             ....       0.199 sec  ( 25.9%)

Maximum memory used throughout the entire SCF-calculation: 228.2 MB


-------------------------------------------------------------------------------
                          DFT DISPERSION CORRECTION                            
                                                                               
                              DFTD3 V3.1  Rev 1                                
                          USING Becke-Johnson damping                          
-------------------------------------------------------------------------------
The PBE0 functional is recognized
Active option DFTDOPT                   ...         4   

molecular C6(AA) [au] = 721.118210 


            DFT-D V3
 parameters
 s6 scaling factor         :     1.0000 
 a1 scaling factor         :     0.4145 
 s8 scaling factor         :     1.2177 
 a2 scaling factor         :     4.8593 
 ad hoc parameters k1-k3   :    16.0000     1.3333    -4.0000 

 Edisp/kcal,au: -3.113393330715  -0.004961507559 
 E6   /kcal   :  -2.065055719 
 E8   /kcal   :  -1.048337612 
 % E8         :  33.671865396 

-------------------------   ----------------
Dispersion correction           -0.004961508
-------------------------   ----------------


-------------------------   --------------------
FINAL SINGLE POINT ENERGY      -118.991557512984
-------------------------   --------------------


                            ***************************************
                            *     ORCA property calculations      *
                            ***************************************

                                    ---------------------
                                    Active property flags
                                    ---------------------
   (+) Dipole Moment


------------------------------------------------------------------------------
                       ORCA ELECTRIC PROPERTIES CALCULATION
------------------------------------------------------------------------------

Dipole Moment Calculation                       ... on
Quadrupole Moment Calculation                   ... off
Polarizability Calculation                      ... off
GBWName                                         ... propane_charge.gbw
Electron density                                ... propane_charge.scfp
The origin for moment calculation is the CENTER OF MASS  = (-8.089098,  2.702815 -0.135713)

-------------
DIPOLE MOMENT
-------------
                                X             Y             Z
Electronic contribution:      0.27176       0.40282       0.00003
Nuclear contribution   :     -0.25272      -0.37478      -0.00002
                        -----------------------------------------
Total Dipole Moment    :      0.01903       0.02804       0.00001
                        -----------------------------------------
Magnitude (a.u.)       :      0.03389
Magnitude (Debye)      :      0.08614



--------------------
Rotational spectrum 
--------------------
 
Rotational constants in cm-1:     0.981604     0.282104     0.249698 
Rotational constants in MHz : 29427.757040  8457.265811  7485.759697 

 Dipole components along the rotational axes: 
x,y,z [a.u.] :    -0.000040     0.033888     0.000002 
x,y,z [Debye]:    -0.000102     0.086136     0.000006 

 
------------------------------------------------------------------------------
                      ORCA CHELPG CHARGES GENERATION
------------------------------------------------------------------------------

GBW file                           ... propane_charge.gbw
Density                            ... propane_charge.scfp

Reading the GBW file               ... done
Reading the density                ... done

Grid spacing                       ...     0.300000
Point Cut-Off                      ...     2.800000
Van-der-Waals Radii                ...        COSMO
Total charge                       ...            0


Number of points X direction       ...           30
Number of points Y direction       ...           28
Number of points Z direction       ...           24
Maximum number of possible points  ...        20160
Final number of points             ...         8548


CHELPG Charges            
--------------------------------
  0   C   :      -0.403616
  1   C   :       0.365991
  2   H   :       0.079933
  3   H   :       0.095002
  4   H   :       0.095477
  5   C   :      -0.405429
  6   H   :      -0.048980
  7   H   :      -0.050234
  8   H   :       0.080002
  9   H   :       0.095936
 10   H   :       0.095917
--------------------------------
Total charge:     0.000000
--------------------------------

CHELPG charges calculated...

Timings for individual parts in CHELPG calculation:
Grid generation                 ...        0.003 sec (=   0.000 min)
Potential calculation           ...        0.480 sec (=   0.008 min)
Fit to the potential            ...        0.002 sec (=   0.000 min)
------------------------------------------------------------------------------


Timings for individual modules:

Sum of individual times         ...        1.965 sec (=   0.033 min)
GTO integral calculation        ...        0.381 sec (=   0.006 min)  19.4 %
SCF iterations                  ...        1.052 sec (=   0.018 min)  53.5 %
CHELPG charge generation        ...        0.532 sec (=   0.009 min)  27.1 %
================================================================================

----- Orbital basis set information -----
Your calculation utilizes the basis: def2-SVP
   F. Weigend and R. Ahlrichs, Phys. Chem. Chem. Phys. 7, 3297 (2005).

                             ****ORCA TERMINATED NORMALLY****
TOTAL RUN TIME: 0 days 0 hours 0 minutes 32 seconds 82 msec
