11
 energy: -10.500828139210 xtb: 6.4.1 (conda-forge)
C        -5.47742873919790    1.91100460922811   -0.07168838231625
C        -3.95364526292989    1.91296474608909   -0.07168876168025
H        -5.86376152631872    2.92778509942240   -0.07188052458528
H        -5.85729615578261    1.39911025315378   -0.95345983492625
H        -5.85732979145712    1.39934211568005    0.81017598931359
C        -3.38967247963522    0.49739081997367   -0.07198055849174
H        -3.59204078800152    2.44719446093589   -0.95326836140449
H        -3.59203064407041    2.44688368906586    0.81005504325669
H        -2.30214072405814    0.51627692122930   -0.07194291177350
H        -3.72380810182836   -0.04553765664571    0.80975937231460
H        -3.72376878672012   -0.04516905813242   -0.95394306970713
11
 energy: -10.500245567210 xtb: 6.4.1 (conda-forge)
C        -5.47912108778769    1.91158844449495   -0.05308409207071
C        -3.95404609535570    1.91171490194096   -0.03431336441312
H        -5.86312615657911    2.90675745913100   -0.26518371008274
H        -5.84267637249527    1.24546565237285   -0.83371003697838
H        -5.88066929801713    1.57155815646590    0.89820689739280
C        -3.38812987863908    0.49870991598032   -0.10722291953078
H        -3.58439613324912    2.48357581753138   -0.88893938398340
H        -3.59777354184968    2.40595598714057    0.87170119731188
H        -2.30085841784939    0.51802704949931   -0.08227765443369
H        -3.74011145681361   -0.09717485852168    0.73255186620642
H        -3.70201456136422    0.01106747396445   -1.02759079941828
11
 energy: -10.498793187023 xtb: 6.4.1 (conda-forge)
C        -5.48304219186334    1.91366993487719   -0.03956255166974
C        -3.95458780012147    1.90766315019983    0.00183319963246
H        -5.85906572796036    2.84587268331953   -0.45395679631422
H        -5.84070336521503    1.11158481672146   -0.68324506745248
H        -5.90750777689993    1.76552235399673    0.94948250588712
C        -3.38453579590045    0.50163847528138   -0.14333963936520
H        -3.56894487822805    2.52148926460952   -0.81570481766681
H        -3.60685052379880    2.35292371190607    0.93551196299391
H        -2.29765114747365    0.52151038623518   -0.10070879937401
H        -3.74723358306949   -0.14272166713934    0.65525968437123
H        -3.68280020946941    0.06809288999248   -1.09543168104226
11
 energy: -10.497264661978 xtb: 6.4.1 (conda-forge)
C        -5.48754552102334    1.91362393130666   -0.03135104459358
C        -3.95555249939301    1.90156744409120    0.03573958894558
H        -5.84937874255107    2.74511772893195   -0.63066299425082
H        -5.85015891161900    1.00072410117626   -0.50009799029144
H        -5.93022365313766    1.97813398903777    0.95851757635097
C        -3.37998302732812    0.50673554073721   -0.18125066238041
H        -3.55083193383115    2.56326672830756   -0.73326743665658
H        -3.62124052540900    2.28619231478049    1.00051285435742
H        -2.29363725464917    0.52697014236438   -0.12308604867480
H        -3.75062538185820   -0.18205937974105    0.57543319170831
H        -3.66374554920031    0.12697345900759   -1.16034903451461
11
 energy: -10.496598563468 xtb: 6.4.1 (conda-forge)
C        -5.49031766569731    1.90903415878867   -0.02726626092193
C        -3.95781702256971    1.89361499485872    0.06795502772559
H        -5.83220188329997    2.60668135716211   -0.78737145965833
H        -5.86743684118223    0.92306101718612   -0.28822510773290
H        -5.94254602562265    2.19800375866215    0.91781035581645
C        -3.37523162077667    0.51455240951565   -0.22039252760118
H        -3.53497058147504    2.60867659085924   -0.64011423102002
H        -3.64446383329238    2.20600202033954    1.06571302177170
H        -2.28955094529842    0.53529336287749   -0.15129473977444
H        -3.75000558326329   -0.21483979095140    0.49471142444469
H        -3.64838099752237    0.18716612070174   -1.22138750304961
11
 energy: -10.497242121539 xtb: 6.4.1 (conda-forge)
C        -5.49028926276087    1.90155445798615   -0.02273050399439
C        -3.96176359475131    1.88378782860652    0.10111603763559
H        -5.80677727678234    2.43831172756984   -0.91352822032164
H        -5.88691349458377    0.89088612557786   -0.06646802217521
H        -5.94314930860894    2.40208920248544    0.83040081845133
C        -3.37125960197188    0.52498809506606   -0.25861023936483
H        -3.52691551129060    2.65024885788675   -0.54207488598790
H        -3.67437626151998    2.12201838770799    1.12752317211356
H        -2.28600652243487    0.54597283339229   -0.18324764143868
H        -3.74696744335324   -0.24236816765495    0.41472798959625
H        -3.63850472194226    0.24975665137607   -1.27697050451407
11
 energy: -10.498768719544 xtb: 6.4.1 (conda-forge)
C        -5.48765236649587    1.89379118169164   -0.01384103757866
C        -3.96597434109037    1.87358587609047    0.13538368946012
H        -5.77746427487544    2.24718841351205   -1.00061598451962
H        -5.90590121109291    0.90415877354585    0.14759653464319
H        -5.93362440552060    2.57243140527621    0.71105149227066
C        -3.36983071504708    0.53813012860324   -0.29460114779982
H        -3.52557517022140    2.68203106987527   -0.45003213010730
H        -3.70230336664764    2.04660514782288    1.18168536566849
H        -2.28553731355617    0.55559723269313   -0.20799927228222
H        -3.75141232476888   -0.26605905441325    0.33060577184544
H        -3.62764751068367    0.31978582530256   -1.32909528160028
11
 energy: -10.500233023726 xtb: 6.4.1 (conda-forge)
C        -5.48522441355589    1.88895046925444   -0.00163727293691
C        -3.96996206136201    1.86215641576790    0.17008776899732
H        -5.75085214359320    2.04387374520400   -1.04509662500836
H        -5.92743202709973    0.95682041749810    0.34086615431440
H        -5.91936973855317    2.70529189816457    0.57260240627209
C        -3.36920387000577    0.55319134330296   -0.32795958012864
H        -3.52597620136323    2.70170211559091   -0.36805386920813
H        -3.72442527500241    1.98173167956459    1.22827354692101
H        -2.28647075064698    0.56252971158457   -0.22396674744053
H        -3.76204172721470   -0.28591689365384    0.24219001446821
H        -3.61196479160296    0.39691509772187   -1.37716779625045
11
 energy: -10.500826925605 xtb: 6.4.1 (conda-forge)
C        -5.48504358005847    1.88627870879202    0.01191106873623
C        -3.97368779266129    1.84924553785600    0.20224242499111
H        -5.73638930463787    1.83447441729082   -1.04545816752417
H        -5.95314454972006    1.04313031316605    0.51563494893685
H        -5.90202624686985    2.80443773191007    0.41947652848191
C        -3.36714792816488    0.56964547964364   -0.36011028508412
H        -3.52499408590593    2.71190950696019   -0.29554744394621
H        -3.74035392541272    1.92324410300608    1.26682555844479
H        -2.28768676759309    0.56406233054740   -0.22652908883460
H        -3.78020041830627   -0.30118535847744    0.14478192699641
H        -3.58224840066954    0.48200322930522   -1.42308947119820
11
 energy: -10.500245260765 xtb: 6.4.1 (conda-forge)
C        -5.48744072455750    1.88406924528456    0.02349275917046
C        -3.97742892745847    1.83370091988042    0.23238144603582
H        -5.73661999660790    1.62850079008968   -1.00423446104303
H        -5.98398008529708    1.16192794354234    0.66941884489307
H        -5.88102255395594    2.87160378838128    0.24925401765036
C        -3.36256430667104    0.58700821567837   -0.39162059728913
H        -3.52108502991929    2.71624876286017   -0.22299748090277
H        -3.75369612619888    1.86155406068638    1.30054316278926
H        -2.28755802081446    0.56481946285474   -0.22705031113946
H        -3.79508619643103   -0.31126158634632    0.04465372435485
H        -3.54644103208840    0.56907439708839   -1.46370310451945
11
 energy: -10.498785474966 xtb: 6.4.1 (conda-forge)
C        -5.49230595175481    1.88040330272098    0.03299913834953
C        -3.98168237249474    1.81489038564494    0.26057944208411
H        -5.75260993713951    1.43410387444848   -0.92406739669557
H        -6.01837481869277    1.31483851525386    0.80042848730222
H        -5.85382972339914    2.90422881006500    0.06042006722120
C        -3.35488017633994    0.60549646105779   -0.42302548323516
H        -3.51569244324354    2.71749816533292   -0.14286113554478
H        -3.76818731963222    1.78838987342926    1.33030397795194
H        -2.28446610564796    0.56920798239300   -0.23279683469829
H        -3.79990922972578   -0.31631402303476   -0.05344599479559
H        -3.51098492192952    0.65450265268857   -1.49839626793963
11
 energy: -10.497254323353 xtb: 6.4.1 (conda-forge)
C        -5.49812506040483    1.87478733070501    0.04123641092806
C        -3.98690654501011    1.79239001523857    0.28886870488049
H        -5.78004825878129    1.26047003596910   -0.81047697191410
H        -6.05260043699873    1.50306465711941    0.90039049752264
H        -5.81633645609881    2.89642166464548   -0.14550814776857
C        -3.34547145797480    0.62590730925788   -0.45409759888135
H        -3.51046896843411    2.71646901959775   -0.04616593953141
H        -3.78840460932086    1.69612605534645    1.35736558514193
H        -2.27654032751641    0.58613018407955   -0.25503290762937
H        -3.78749981817323   -0.31750537033644   -0.13958572475544
H        -3.49052106128687    0.73298509837742   -1.52685590799291
11
 energy: -10.496598772040 xtb: 6.4.1 (conda-forge)
C        -5.50219987915464    1.86616093960084    0.05140116826066
C        -3.99278855013756    1.76939058371640    0.31624316524254
H        -5.81494236120845    1.10917989414382   -0.66369987774724
H        -6.07408146761174    1.71792233821253    0.96369082198510
H        -5.77030574733682    2.83785587857566   -0.35537777769782
C        -3.33729701635833    0.64997772060633   -0.48483561032062
H        -3.50961044087986    2.71411906907096    0.06052680283041
H        -3.81250793060426    1.59355946652549    1.37836052044968
H        -2.26946044815107    0.60772401800850   -0.28055317997802
H        -3.77414525059547   -0.31172895562755   -0.22398750624394
H        -3.47558390796171    0.81308504716724   -1.55163052678078
11
 energy: -10.497257676784 xtb: 6.4.1 (conda-forge)
C        -5.50260663475981    1.85751263967576    0.06120160886478
C        -3.99952324079441    1.74594672372883    0.34389484053463
H        -5.85280406815096    0.98991517634684   -0.49289661436504
H        -6.07639573866629    1.93957132488767    0.97971932665701
H        -5.71849930505942    2.73301523511997   -0.54785484060315
C        -3.33186420593194    0.67674077053697   -0.51347633524190
H        -3.51428080889889    2.70742915276591    0.16954238553623
H        -3.84241199895957    1.49080350048975    1.39441917787769
H        -2.26428377921902    0.63255091185490   -0.30839346494894
H        -3.76185896603910   -0.30047087528033   -0.30499193336651
H        -3.46839425352054    0.89423143987396   -1.57102615094484
11
 energy: -10.498789175170 xtb: 6.4.1 (conda-forge)
C        -5.50049239532151    1.84965011531022    0.06854158954431
C        -4.00707133179837    1.72150467990233    0.37056752961720
H        -5.89500939204850    0.90802028155723   -0.30644081483904
H        -6.06041130933859    2.14558726195246    0.95080730333895
H        -5.67015564057380    2.59571830120795   -0.70633242978398
C        -3.32763166325992    0.70467458280089   -0.53911680901477
H        -3.52325804866239    2.69405330939455    0.26692692404621
H        -3.87366008835116    1.39926599748345    1.40659087171300
H        -2.26146153923598    0.65333264645523   -0.32895867670901
H        -3.75546058015781   -0.28399527813695   -0.38843113337083
H        -3.45831101125191    0.97943410207290   -1.58401635454213
11
 energy: -10.500246766885 xtb: 6.4.1 (conda-forge)
C        -5.49885295135743    1.84103958328153    0.07328916870806
C        -4.01516127752185    1.69601571546045    0.39450839670738
H        -5.94450782374357    0.86564499886488   -0.10972180159927
H        -6.03021186541022    2.32826924967121    0.88616968537771
H        -5.63410543676414    2.43596510924128   -0.82868112176300
C        -3.32285235195443    0.73277348077772   -0.56179914281615
H        -3.53293536672989    2.67423372669721    0.34861624290528
H        -3.90193472821127    1.32053298133150    1.41476903526198
H        -2.26017768424334    0.66619278264489   -0.33912947663818
H        -3.75475370157166   -0.26221513747408   -0.47716261719505
H        -3.43742981249216    1.06879350950366   -1.59072036894879
11
 energy: -10.500826973024 xtb: 6.4.1 (conda-forge)
C        -5.50064524311019    1.82966632494995    0.07644947379321
C        -4.02333923821748    1.66939245219817    0.41356156459472
H        -6.00171635211349    0.86403655084117    0.09200654197587
H        -5.99085890755369    2.48221820639052    0.79535034121129
H        -5.61970698662147    2.26052711812298   -0.91546261354194
C        -3.31443161739078    0.76043382931581   -0.58286397031445
H        -3.54375810743529    2.65087583001701    0.41327817049367
H        -3.92382125876038    1.25286012499002    1.41849906694434
H        -2.25971815995912    0.66533226574392   -0.33448991614097
H        -3.75979471236981   -0.23222548314644   -0.57618894016478
H        -3.39513241646827    1.16412878057720   -1.59000171885099
11
 energy: -10.500227815046 xtb: 6.4.1 (conda-forge)
C        -5.50512036078342    1.81813011830580    0.07934668698546
C        -4.03183473020703    1.63936373405049    0.43142751443562
H        -6.06401257234488    0.90783285739693    0.28529599432542
H        -5.94413145558999    2.61559522081598    0.67517620451729
H        -5.62065257841224    2.07320863304367   -0.97102569317338
C        -3.30368994413642    0.78832312167349   -0.60212274804114
H        -3.55223080896651    2.61993880014228    0.48066130749229
H        -3.94388131626998    1.17914326497381    1.41736229243310
H        -2.25561830957295    0.67233003320597   -0.33504186599051
H        -3.75312852500295   -0.20063404373499   -0.66719757312915
H        -3.35862239871360    1.25401426012686   -1.58374411985508
11
 energy: -10.498763874905 xtb: 6.4.1 (conda-forge)
C        -5.51219565451901    1.80687361946903    0.08439657051798
C        -4.03976954868140    1.60874028754973    0.44711875981953
H        -6.12185907825326    0.99246840222434    0.46873106770735
H        -5.89318275040073    2.72608039870155    0.52536887231820
H        -5.64049222870211    1.87000192460650   -0.99264649464232
C        -3.29166957057278    0.81800192336544   -0.61996626638969
H        -3.55877321769792    2.58424694956005    0.55222831550193
H        -3.96011340175177    1.10003867885808    1.40902975894970
H        -2.25085894161335    0.67860475655333   -0.33577631719589
H        -3.74398177048703   -0.16231266255880   -0.75693544544116
H        -3.32002683732064    1.34450172167102   -1.57141082114576
11
 energy: -10.497238943570 xtb: 6.4.1 (conda-forge)
C        -5.51845164127136    1.80002609752749    0.09059811462759
C        -4.04755258415516    1.57698533017374    0.46283701944009
H        -6.16926306900390    1.11709054443854    0.63074894441285
H        -5.83337937289268    2.81012836727677    0.34426026561403
H        -5.67424746989565    1.65953668328578   -0.97569491607749
C        -3.28063196947707    0.85025966029387   -0.63637285514278
H        -3.56384731924327    2.54040014395850    0.63876746750968
H        -3.97968333559238    1.00717732046312    1.39075768384467
H        -2.24354424733712    0.69900834502021   -0.34419647869979
H        -3.72583273236242   -0.12284432359359   -0.83449510206041
H        -3.29648925876895    1.42947783115591   -1.55707214346860
11
 energy: -10.496598995378 xtb: 6.4.1 (conda-forge)
C        -5.52162254470839    1.79691765615893    0.09735084182128
C        -4.05501269304446    1.54677926381064    0.47741588043500
H        -6.19830479381052    1.27455220027950    0.76861717398003
H        -5.76491530794894    2.85551063420734    0.13546268382753
H        -5.72029642242371    1.44643258581151   -0.91267040070773
C        -3.27131392419759    0.88616486197002   -0.65119247468587
H        -3.57207193793100    2.49092083692982    0.73563662319012
H        -4.00442655389779    0.90788720405089    1.36099191965683
H        -2.23714559274086    0.72314000790131   -0.35497693038347
H        -3.70981735818489   -0.07606074444662   -0.90741845059940
H        -3.27799587111181    1.51500149332702   -1.53907886653451
11
 energy: -10.497269580308 xtb: 6.4.1 (conda-forge)
C        -5.52091740652578    1.79385682986060    0.10109365097762
C        -4.06403934172774    1.51586542311958    0.49031442595786
H        -6.20658454000038    1.45443948034877    0.87326039756863
H        -5.69134708565158    2.85195115915874   -0.07636931703857
H        -5.77547046296419    1.25728346024398   -0.81087707835209
C        -3.26332673603436    0.92286678771541   -0.66350021281664
H        -3.58606254239271    2.43658304206648    0.82863802102175
H        -4.03629486740688    0.81221161594658    1.32521294484902
H        -2.23103041694600    0.75185740526498   -0.36549550210877
H        -3.69202406228378   -0.02720391097092   -0.97481747257905
H        -3.26582553806655    1.59753470724616   -1.51732185747996
11
 energy: -10.498798948934 xtb: 6.4.1 (conda-forge)
C        -5.51880498826418    1.78618859101956    0.10176426428725
C        -4.07418128767776    1.48359571229034    0.50116562314575
H        -6.19401220209869    1.64518103098048    0.94222308538004
H        -5.62237642108249    2.80034182568470   -0.27378961459861
H        -5.83886631123347    1.10174685191773   -0.68240430537526
C        -3.25588969953194    0.95917203005254   -0.67294368788396
H        -3.60521631665092    2.38131715871167    0.90746602311668
H        -4.06857853369659    0.72708679582406    1.28965671446704
H        -2.22649401302546    0.77599784173663   -0.37249468106780
H        -3.67677285801129    0.02661754128809   -1.04220545906080
H        -3.25173036872714    1.68000062049462   -1.48829996241052
11
 energy: -10.500246902448 xtb: 6.4.1 (conda-forge)
C        -5.51774814680018    1.77144291201980    0.10079969054120
C        -4.08451165632224    1.44907686767185    0.51047536874482
H        -6.16364335247776    1.83762827763228    0.97301318190265
H        -5.56377662942609    2.70996491205400   -0.44581913099815
H        -5.91015760112976    0.98433320420728   -0.54094631860862
C        -3.24911890305080    0.99386810187801   -0.67979420908827
H        -3.62737352614861    2.32772977298094    0.96964731042466
H        -4.09417656206770    0.65328722271545    1.25913767227508
H        -2.22387801479712    0.79512532176086   -0.37554398138414
H        -3.66313041191256    0.08392969663100   -1.10912991414372
H        -3.23540819586710    1.76085971044891   -1.45170166966574
