 Entering Gaussian System, Link 0=g16
 Input=CC_H8C3_d91b46644317dee9c2b868166c66a18c~1.inp
 Output=CC_H8C3_d91b46644317dee9c2b868166c66a18c~1.log
 Initial command:
 /biggin/b120/grte2001/src/g16root/g16/l1.exe "/biggin/b120/grte2001/Gaussian_test/propane_qforce/fragments/Gau-29406.inp" -scrdir="/biggin/b120/grte2001/Gaussian_test/propane_qforce/fragments/"
 Entering Link 1 = /biggin/b120/grte2001/src/g16root/g16/l1.exe PID=     29408.
  
 Copyright (c) 1988,1990,1992,1993,1995,1998,2003,2009,2016,
            Gaussian, Inc.  All Rights Reserved.
  
 This is part of the Gaussian(R) 16 program.  It is based on
 the Gaussian(R) 09 system (copyright 2009, Gaussian, Inc.),
 the Gaussian(R) 03 system (copyright 2003, Gaussian, Inc.),
 the Gaussian(R) 98 system (copyright 1998, Gaussian, Inc.),
 the Gaussian(R) 94 system (copyright 1995, Gaussian, Inc.),
 the Gaussian 92(TM) system (copyright 1992, Gaussian, Inc.),
 the Gaussian 90(TM) system (copyright 1990, Gaussian, Inc.),
 the Gaussian 88(TM) system (copyright 1988, Gaussian, Inc.),
 the Gaussian 86(TM) system (copyright 1986, Carnegie Mellon
 University), and the Gaussian 82(TM) system (copyright 1983,
 Carnegie Mellon University). Gaussian is a federally registered
 trademark of Gaussian, Inc.
  
 This software contains proprietary and confidential information,
 including trade secrets, belonging to Gaussian, Inc.
  
 This software is provided under written license and may be
 used, copied, transmitted, or stored only in accord with that
 written license.
  
 The following legend is applicable only to US Government
 contracts under FAR:
  
                    RESTRICTED RIGHTS LEGEND
  
 Use, reproduction and disclosure by the US Government is
 subject to restrictions as set forth in subparagraphs (a)
 and (c) of the Commercial Computer Software - Restricted
 Rights clause in FAR 52.227-19.
  
 Gaussian, Inc.
 340 Quinnipiac St., Bldg. 40, Wallingford CT 06492
  
  
 ---------------------------------------------------------------
 Warning -- This program may not be used in any manner that
 competes with the business of Gaussian, Inc. or will provide
 assistance to any competitor of Gaussian, Inc.  The licensee
 of this program is prohibited from giving any competitor of
 Gaussian, Inc. access to this program.  By using this program,
 the user acknowledges that Gaussian, Inc. is engaged in the
 business of creating and licensing software in the field of
 computational chemistry and represents and warrants to the
 licensee that it is not a competitor of Gaussian, Inc. and that
 it will not use this program in any manner prohibited above.
 ---------------------------------------------------------------
  

 Cite this work as:
 Gaussian 16, Revision A.03,
 M. J. Frisch, G. W. Trucks, H. B. Schlegel, G. E. Scuseria, 
 M. A. Robb, J. R. Cheeseman, G. Scalmani, V. Barone, 
 G. A. Petersson, H. Nakatsuji, X. Li, M. Caricato, A. V. Marenich, 
 J. Bloino, B. G. Janesko, R. Gomperts, B. Mennucci, H. P. Hratchian, 
 J. V. Ortiz, A. F. Izmaylov, J. L. Sonnenberg, D. Williams-Young, 
 F. Ding, F. Lipparini, F. Egidi, J. Goings, B. Peng, A. Petrone, 
 T. Henderson, D. Ranasinghe, V. G. Zakrzewski, J. Gao, N. Rega, 
 G. Zheng, W. Liang, M. Hada, M. Ehara, K. Toyota, R. Fukuda, 
 J. Hasegawa, M. Ishida, T. Nakajima, Y. Honda, O. Kitao, H. Nakai, 
 T. Vreven, K. Throssell, J. A. Montgomery, Jr., J. E. Peralta, 
 F. Ogliaro, M. J. Bearpark, J. J. Heyd, E. N. Brothers, K. N. Kudin, 
 V. N. Staroverov, T. A. Keith, R. Kobayashi, J. Normand, 
 K. Raghavachari, A. P. Rendell, J. C. Burant, S. S. Iyengar, 
 J. Tomasi, M. Cossi, J. M. Millam, M. Klene, C. Adamo, R. Cammi, 
 J. W. Ochterski, R. L. Martin, K. Morokuma, O. Farkas, 
 J. B. Foresman, and D. J. Fox, Gaussian, Inc., Wallingford CT, 2016.
 
 ******************************************
 Gaussian 16:  ES64L-G16RevA.03 25-Dec-2016
                 4-Nov-2021 
 ******************************************
 %nprocshared=12
 Will use up to   12 processors via shared memory.
 %mem=30000MB
 %chk=CC_H8C3_d91b46644317dee9c2b868166c66a18c~1.chk
 ----------------------------------------------------------------------
 #Opt=Modredundant PBEPBE EmpiricalDispersion=GD3BJ 6-31+G(D) pop=(CM5,
  ESP)
 ----------------------------------------------------------------------
 1/18=120,19=15,26=3,38=1/1,3;
 2/9=110,12=2,17=6,18=5,40=1/2;
 3/5=1,6=6,7=11,11=2,25=1,30=1,71=1,74=1009,124=41/1,2,3;
 4//1;
 5/5=2,38=5/2;
 6/7=2,8=2,9=2,10=2,15=8,28=1,79=1/1,2;
 7//1,2,3,16;
 1/18=20,19=15,26=3/3(2);
 2/9=110/2;
 99//99;
 2/9=110/2;
 3/5=1,6=6,7=11,11=2,25=1,30=1,71=1,74=1009,124=41/1,2,3;
 4/5=5,16=3,69=1/1;
 5/5=2,38=5/2;
 7//1,2,3,16;
 1/18=20,19=15,26=3/3(-5);
 2/9=110/2;
 6/7=2,8=2,9=2,10=2,15=8,19=2,28=1,79=1/1,2;
 99/9=1/99;
 ------------------------------------------
 CC_H8C3_d91b46644317dee9c2b868166c66a18c~1
 ------------------------------------------
 Symbolic Z-matrix:
 Charge =  0 Multiplicity = 1
 C                    -1.27701  -0.26035   0.00006 
 C                     0.00001   0.5888    0.00006 
 H                    -2.18532   0.36785   0.0002 
 H                    -1.32005  -0.9133   -0.89107 
 H                    -1.31992  -0.91348   0.89106 
 C                     1.277    -0.26035  -0.00012 
 H                    -0.00006   1.25474  -0.88425 
 H                     0.00006   1.25454   0.88452 
 H                     2.18533   0.36783  -0.00017 
 H                     1.32008  -0.91344   0.89091 
 H                     1.31991  -0.91333  -0.89123 
 
 The following ModRedundant input section has been read:
 D       3       1       2       6 S  23 15.000                                
 

 GradGradGradGradGradGradGradGradGradGradGradGradGradGradGradGradGradGrad
 Berny optimization.
 Initialization pass.
                           ----------------------------
                           !    Initial Parameters    !
                           ! (Angstroms and Degrees)  !
 --------------------------                            --------------------------
 ! Name  Definition              Value          Derivative Info.                !
 --------------------------------------------------------------------------------
 ! R1    R(1,2)                  1.5336         estimate D2E/DX2                !
 ! R2    R(1,3)                  1.1044         estimate D2E/DX2                !
 ! R3    R(1,4)                  1.1056         estimate D2E/DX2                !
 ! R4    R(1,5)                  1.1056         estimate D2E/DX2                !
 ! R5    R(2,6)                  1.5335         estimate D2E/DX2                !
 ! R6    R(2,7)                  1.107          estimate D2E/DX2                !
 ! R7    R(2,8)                  1.107          estimate D2E/DX2                !
 ! R8    R(6,9)                  1.1044         estimate D2E/DX2                !
 ! R9    R(6,10)                 1.1056         estimate D2E/DX2                !
 ! R10   R(6,11)                 1.1056         estimate D2E/DX2                !
 ! A1    A(2,1,3)              111.7098         estimate D2E/DX2                !
 ! A2    A(2,1,4)              111.0656         estimate D2E/DX2                !
 ! A3    A(2,1,5)              111.0652         estimate D2E/DX2                !
 ! A4    A(3,1,4)              107.6993         estimate D2E/DX2                !
 ! A5    A(3,1,5)              107.699          estimate D2E/DX2                !
 ! A6    A(4,1,5)              107.4085         estimate D2E/DX2                !
 ! A7    A(1,2,6)              112.7553         estimate D2E/DX2                !
 ! A8    A(1,2,7)              109.4533         estimate D2E/DX2                !
 ! A9    A(1,2,8)              109.4528         estimate D2E/DX2                !
 ! A10   A(6,2,7)              109.4542         estimate D2E/DX2                !
 ! A11   A(6,2,8)              109.4542         estimate D2E/DX2                !
 ! A12   A(7,2,8)              106.0495         estimate D2E/DX2                !
 ! A13   A(2,6,9)              111.7108         estimate D2E/DX2                !
 ! A14   A(2,6,10)             111.0665         estimate D2E/DX2                !
 ! A15   A(2,6,11)             111.0667         estimate D2E/DX2                !
 ! A16   A(9,6,10)             107.6971         estimate D2E/DX2                !
 ! A17   A(9,6,11)             107.697          estimate D2E/DX2                !
 ! A18   A(10,6,11)            107.4092         estimate D2E/DX2                !
 ! D1    D(3,1,2,6)            179.9999         Scan                            !
 ! D2    D(3,1,2,7)            -57.915          estimate D2E/DX2                !
 ! D3    D(3,1,2,8)             57.9151         estimate D2E/DX2                !
 ! D4    D(4,1,2,6)            -59.7335         estimate D2E/DX2                !
 ! D5    D(4,1,2,7)             62.3517         estimate D2E/DX2                !
 ! D6    D(4,1,2,8)            178.1818         estimate D2E/DX2                !
 ! D7    D(5,1,2,6)             59.7339         estimate D2E/DX2                !
 ! D8    D(5,1,2,7)           -178.181          estimate D2E/DX2                !
 ! D9    D(5,1,2,8)            -62.3508         estimate D2E/DX2                !
 ! D10   D(1,2,6,9)            179.9968         estimate D2E/DX2                !
 ! D11   D(1,2,6,10)           -59.7381         estimate D2E/DX2                !
 ! D12   D(1,2,6,11)            59.7317         estimate D2E/DX2                !
 ! D13   D(7,2,6,9)             57.9122         estimate D2E/DX2                !
 ! D14   D(7,2,6,10)           178.1773         estimate D2E/DX2                !
 ! D15   D(7,2,6,11)           -62.3529         estimate D2E/DX2                !
 ! D16   D(8,2,6,9)            -57.9192         estimate D2E/DX2                !
 ! D17   D(8,2,6,10)            62.3459         estimate D2E/DX2                !
 ! D18   D(8,2,6,11)          -178.1843         estimate D2E/DX2                !
 --------------------------------------------------------------------------------
 Trust Radius=3.00D-01 FncErr=1.00D-07 GrdErr=1.00D-06 EigMax=2.50D+02 EigMin=1.00D-04
 Number of optimizations in scan=  24
 Number of steps in this run=     56 maximum allowed number of steps=    100.
 GradGradGradGradGradGradGradGradGradGradGradGradGradGradGradGradGradGrad

                          Input orientation:                          
 ---------------------------------------------------------------------
 Center     Atomic      Atomic             Coordinates (Angstroms)
 Number     Number       Type             X           Y           Z
 ---------------------------------------------------------------------
      1          6           0       -1.277008   -0.260352    0.000062
      2          6           0        0.000008    0.588804    0.000062
      3          1           0       -2.185320    0.367846    0.000196
      4          1           0       -1.320048   -0.913299   -0.891067
      5          1           0       -1.319919   -0.913481    0.891063
      6          6           0        1.276995   -0.260352   -0.000119
      7          1           0       -0.000061    1.254738   -0.884251
      8          1           0        0.000059    1.254539    0.884523
      9          1           0        2.185330    0.367825   -0.000173
     10          1           0        1.320084   -0.913437    0.890907
     11          1           0        1.319906   -0.913330   -0.891231
 ---------------------------------------------------------------------
                    Distance matrix (angstroms):
                    1          2          3          4          5
     1  C    0.000000
     2  C    1.533570   0.000000
     3  H    1.104384   2.196470   0.000000
     4  H    1.105578   2.189286   1.784483   0.000000
     5  H    1.105578   2.189281   1.784478   1.782130   0.000000
     6  C    2.554003   1.533545   3.518843   2.822191   2.822188
     7  H    2.169816   1.107013   2.518766   2.538266   3.097570
     8  H    2.169808   1.107011   2.518758   3.097567   2.538247
     9  H    3.518862   2.196466   4.370650   3.837010   3.837032
    10  H    2.822235   2.189277   3.837044   3.185236   2.640003
    11  H    2.822188   2.189279   3.837012   2.639954   3.185161
                    6          7          8          9         10
     6  C    0.000000
     7  H    2.169806   0.000000
     8  H    2.169805   1.768774   0.000000
     9  H    1.104391   2.518758   2.518801   0.000000
    10  H    1.105579   3.097572   2.538233   1.784463   0.000000
    11  H    1.105578   2.538283   3.097572   1.784461   1.782138
                   11
    11  H    0.000000
 Stoichiometry    C3H8
 Framework group  C1[X(C3H8)]
 Deg. of freedom    27
 Full point group                 C1      NOp   1
 Largest Abelian subgroup         C1      NOp   1
 Largest concise Abelian subgroup C1      NOp   1
                         Standard orientation:                         
 ---------------------------------------------------------------------
 Center     Atomic      Atomic             Coordinates (Angstroms)
 Number     Number       Type             X           Y           Z
 ---------------------------------------------------------------------
      1          6           0        1.277008   -0.260352   -0.000062
      2          6           0       -0.000008    0.588804   -0.000062
      3          1           0        2.185320    0.367846   -0.000196
      4          1           0        1.320048   -0.913299    0.891067
      5          1           0        1.319919   -0.913481   -0.891063
      6          6           0       -1.276995   -0.260352    0.000119
      7          1           0        0.000061    1.254738    0.884251
      8          1           0       -0.000059    1.254539   -0.884523
      9          1           0       -2.185330    0.367825    0.000173
     10          1           0       -1.320084   -0.913437   -0.890907
     11          1           0       -1.319906   -0.913330    0.891231
 ---------------------------------------------------------------------
 Rotational constants (GHZ):          29.0957190           8.3444047           7.3907649
 Standard basis: 6-31+G(d) (6D, 7F)
 There are    73 symmetry adapted cartesian basis functions of A   symmetry.
 There are    73 symmetry adapted basis functions of A   symmetry.
    73 basis functions,   128 primitive gaussians,    73 cartesian basis functions
    13 alpha electrons       13 beta electrons
       nuclear repulsion energy        81.9701639499 Hartrees.
 NAtoms=   11 NActive=   11 NUniq=   11 SFac= 1.00D+00 NAtFMM=   60 NAOKFM=F Big=F
 Integral buffers will be    131072 words long.
 Raffenetti 2 integral format.
 Two-electron integral symmetry is turned on.
 Nuclear repulsion after empirical dispersion term =       81.9641486694 Hartrees.
 One-electron integrals computed using PRISM.
 NBasis=    73 RedAO= T EigKep=  2.21D-04  NBF=    73
 NBsUse=    73 1.00D-06 EigRej= -1.00D+00 NBFU=    73
 ExpMin= 4.38D-02 ExpMax= 3.05D+03 ExpMxC= 4.57D+02 IAcc=3 IRadAn=         5 AccDes= 0.00D+00
 Harris functional with IExCor= 1009 and IRadAn=       5 diagonalized for initial guess.
 HarFok:  IExCor= 1009 AccDes= 0.00D+00 IRadAn=         5 IDoV= 1 UseB2=F ITyADJ=14
 ICtDFT=  3500011 ScaDFX=  1.000000  1.000000  1.000000  1.000000
 FoFCou: FMM=F IPFlag=           0 FMFlag=      100000 FMFlg1=           0
         NFxFlg=           0 DoJE=T BraDBF=F KetDBF=T FulRan=T
         wScrn=  0.000000 ICntrl=       500 IOpCl=  0 I1Cent=   200000004 NGrid=           0
         NMat0=    1 NMatS0=      1 NMatT0=    0 NMatD0=    1 NMtDS0=    0 NMtDT0=    0
 Petite list used in FoFCou.
 Keep J ints in memory in canonical form, NReq=14405706.
 Requested convergence on RMS density matrix=1.00D-08 within 128 cycles.
 Requested convergence on MAX density matrix=1.00D-06.
 Requested convergence on             energy=1.00D-06.
 No special actions if energy rises.
 SCF Done:  E(RPBE-PBE) =  -118.965911999     A.U. after   10 cycles
            NFock= 10  Conv=0.27D-08     -V/T= 2.0113

 **********************************************************************

            Population analysis using the SCF density.

 **********************************************************************

 Orbital symmetries:
       Occupied  (A) (A) (A) (A) (A) (A) (A) (A) (A) (A) (A) (A)
                 (A)
       Virtual   (A) (A) (A) (A) (A) (A) (A) (A) (A) (A) (A) (A)
                 (A) (A) (A) (A) (A) (A) (A) (A) (A) (A) (A) (A)
                 (A) (A) (A) (A) (A) (A) (A) (A) (A) (A) (A) (A)
                 (A) (A) (A) (A) (A) (A) (A) (A) (A) (A) (A) (A)
                 (A) (A) (A) (A) (A) (A) (A) (A) (A) (A) (A) (A)
 The electronic state is 1-A.
 Alpha  occ. eigenvalues --   -9.89872  -9.88952  -9.88952  -0.70492  -0.61111
 Alpha  occ. eigenvalues --   -0.52184  -0.40508  -0.38671  -0.35074  -0.33312
 Alpha  occ. eigenvalues --   -0.29500  -0.29344  -0.28327
 Alpha virt. eigenvalues --    0.00260   0.02046   0.02446   0.03292   0.05805
 Alpha virt. eigenvalues --    0.06723   0.07393   0.07465   0.08364   0.10275
 Alpha virt. eigenvalues --    0.11051   0.13908   0.16518   0.17173   0.17238
 Alpha virt. eigenvalues --    0.21744   0.22081   0.22221   0.24709   0.28118
 Alpha virt. eigenvalues --    0.30393   0.31704   0.57288   0.59845   0.61380
 Alpha virt. eigenvalues --    0.62412   0.64750   0.65485   0.68305   0.69062
 Alpha virt. eigenvalues --    0.78934   0.88161   0.89825   0.91740   0.93866
 Alpha virt. eigenvalues --    0.96240   1.00354   1.05474   1.06407   1.07263
 Alpha virt. eigenvalues --    1.34996   1.39745   1.42116   1.52456   1.68007
 Alpha virt. eigenvalues --    1.82511   1.85936   1.91564   1.96928   2.03645
 Alpha virt. eigenvalues --    2.16038   2.18058   2.25477   2.31261   2.33887
 Alpha virt. eigenvalues --    2.51922   2.61636   4.08483   4.21395   4.38982
          Condensed to atoms (all electrons):
               1          2          3          4          5          6
     1  C    5.604984   0.109874   0.390782   0.398628   0.398629  -0.108769
     2  C    0.109874   5.640342  -0.065460  -0.052670  -0.052671   0.109871
     3  H    0.390782  -0.065460   0.502190  -0.027199  -0.027199   0.019070
     4  H    0.398628  -0.052670  -0.027199   0.504847  -0.031480  -0.009765
     5  H    0.398629  -0.052671  -0.027199  -0.031480   0.504847  -0.009765
     6  C   -0.108769   0.109871   0.019070  -0.009765  -0.009765   5.604990
     7  H   -0.052847   0.409451  -0.002854  -0.004942   0.004548  -0.052847
     8  H   -0.052848   0.409450  -0.002854   0.004548  -0.004942  -0.052846
     9  H    0.019071  -0.065461  -0.000129  -0.000008  -0.000008   0.390781
    10  H   -0.009767  -0.052669  -0.000008  -0.000452   0.003632   0.398630
    11  H   -0.009765  -0.052672  -0.000008   0.003632  -0.000452   0.398630
               7          8          9         10         11
     1  C   -0.052847  -0.052848   0.019071  -0.009767  -0.009765
     2  C    0.409451   0.409450  -0.065461  -0.052669  -0.052672
     3  H   -0.002854  -0.002854  -0.000129  -0.000008  -0.000008
     4  H   -0.004942   0.004548  -0.000008  -0.000452   0.003632
     5  H    0.004548  -0.004942  -0.000008   0.003632  -0.000452
     6  C   -0.052847  -0.052846   0.390781   0.398630   0.398630
     7  H    0.524671  -0.035207  -0.002855   0.004548  -0.004941
     8  H   -0.035207   0.524671  -0.002854  -0.004942   0.004548
     9  H   -0.002855  -0.002854   0.502196  -0.027201  -0.027201
    10  H    0.004548  -0.004942  -0.027201   0.504846  -0.031479
    11  H   -0.004941   0.004548  -0.027201  -0.031479   0.504848
 Mulliken charges:
               1
     1  C   -0.687969
     2  C   -0.337385
     3  H    0.213668
     4  H    0.214861
     5  H    0.214862
     6  C   -0.687979
     7  H    0.213275
     8  H    0.213276
     9  H    0.213668
    10  H    0.214862
    11  H    0.214861
 Sum of Mulliken charges =  -0.00000
 Mulliken charges with hydrogens summed into heavy atoms:
               1
     1  C   -0.044579
     2  C    0.089166
     6  C   -0.044587
 Electronic spatial extent (au):  <R**2>=            229.8155
 Charge=             -0.0000 electrons
 Dipole moment (field-independent basis, Debye):
    X=             -0.0000    Y=              0.0904    Z=             -0.0000  Tot=              0.0904
 Quadrupole moment (field-independent basis, Debye-Ang):
   XX=            -22.6285   YY=            -22.2617   ZZ=            -21.7570
   XY=              0.0001   XZ=              0.0000   YZ=              0.0000
 Traceless Quadrupole moment (field-independent basis, Debye-Ang):
   XX=             -0.4128   YY=             -0.0460   ZZ=              0.4587
   XY=              0.0001   XZ=              0.0000   YZ=              0.0000
 Octapole moment (field-independent basis, Debye-Ang**2):
  XXX=             -0.0002  YYY=              0.4563  ZZZ=              0.0000  XYY=              0.0001
  XXY=              1.6065  XXZ=             -0.0001  XZZ=             -0.0001  YZZ=             -0.5012
  YYZ=             -0.0001  XYZ=             -0.0002
 Hexadecapole moment (field-independent basis, Debye-Ang**3):
 XXXX=           -213.0897 YYYY=            -76.5635 ZZZZ=            -47.0801 XXXY=              0.0006
 XXXZ=              0.0055 YYYX=              0.0001 YYYZ=              0.0022 ZZZX=              0.0063
 ZZZY=              0.0009 XXYY=            -47.7758 XXZZ=            -44.3469 YYZZ=            -18.3962
 XXYZ=              0.0005 YYXZ=              0.0020 ZZXY=              0.0001
 N-N= 8.196414866941D+01 E-N=-4.381759812534D+02  KE= 1.176399371402D+02
 There are a total of      250426 grid points.
 ElSum from          density=       25.9999994221
 ElSum from atomic densities=       25.9999981396

 Hirshfeld populations at iteration   1 (CX, CA, CB, DipXYZ):
               1          2          3          4          5          6
     1  C    0.000000   3.047366   3.047366  -0.016124   0.014793  -0.000000
     2  C    0.000000   3.026835   3.026835  -0.000001  -0.019110   0.000003
     3  H    0.000002   0.484212   0.484212   0.106684   0.081011  -0.000017
     4  H    0.000002   0.484952   0.484952   0.002592  -0.074224   0.108753
     5  H    0.000002   0.484952   0.484952   0.002576  -0.074246  -0.108738
     6  C    0.000000   3.047366   3.047366   0.016127   0.014792  -0.000002
     7  H    0.000001   0.485100   0.485100   0.000008   0.074552   0.106779
     8  H    0.000001   0.485100   0.485100  -0.000005   0.074527  -0.106796
     9  H    0.000002   0.484212   0.484212  -0.106686   0.081004   0.000006
    10  H    0.000002   0.484952   0.484952  -0.002599  -0.074239  -0.108743
    11  H    0.000002   0.484952   0.484952  -0.002578  -0.074227   0.108752
       Tot   0.000013  13.000000  13.000000  -0.000006   0.024634  -0.000004

 Dip from Atomic Chgs             -0.000001   0.010911  -0.000002
         Total Dipole             -0.000007   0.035545  -0.000006

 Hirshfeld charges, spin densities, dipoles, and CM5 charges using IRadAn=      5:
              Q-H        S-H        Dx         Dy         Dz        Q-CM5   
     1  C   -0.094733   0.000000  -0.016124   0.014793  -0.000000  -0.240820
     2  C   -0.053669   0.000000  -0.000001  -0.019110   0.000003  -0.164064
     3  H    0.031577   0.000000   0.106684   0.081011  -0.000017   0.080893
     4  H    0.030096   0.000000   0.002592  -0.074224   0.108753   0.079872
     5  H    0.030096   0.000000   0.002576  -0.074246  -0.108738   0.079872
     6  C   -0.094733   0.000000   0.016127   0.014792  -0.000002  -0.240819
     7  H    0.029799   0.000000   0.000008   0.074552   0.106779   0.082214
     8  H    0.029799   0.000000  -0.000005   0.074527  -0.106796   0.082215
     9  H    0.031576   0.000000  -0.106686   0.081004   0.000006   0.080891
    10  H    0.030096   0.000000  -0.002599  -0.074239  -0.108743   0.079873
    11  H    0.030096   0.000000  -0.002578  -0.074227   0.108752   0.079873
       Tot   0.000001   0.000000  -0.000006   0.024634  -0.000004   0.000001
 Hirshfeld charges with hydrogens summed into heavy atoms:
              Q-H       Q-CM5   
     1  C   -0.002964  -0.000182
     2  C    0.005930   0.000365
     6  C   -0.002965  -0.000182
 
 EQQ= 0.000000000000E+00 EQD= 0.000000000000E+00 EDD=-0.169319328572E-02
 EQQ+QD+DD=-0.169319328572E-02
 
 Merz-Kollman atomic radii used.

 **********************************************************************

            Electrostatic Properties Using The SCF Density

 **********************************************************************

       Atomic Center    1 is at   1.277008 -0.260352 -0.000062
       Atomic Center    2 is at  -0.000008  0.588804 -0.000062
       Atomic Center    3 is at   2.185320  0.367846 -0.000196
       Atomic Center    4 is at   1.320048 -0.913299  0.891067
       Atomic Center    5 is at   1.319919 -0.913481 -0.891063
       Atomic Center    6 is at  -1.276995 -0.260352  0.000119
       Atomic Center    7 is at   0.000061  1.254738  0.884251
       Atomic Center    8 is at  -0.000059  1.254539 -0.884523
       Atomic Center    9 is at  -2.185330  0.367825  0.000173
       Atomic Center   10 is at  -1.320084 -0.913437 -0.890907
       Atomic Center   11 is at  -1.319906 -0.913330  0.891231
     583 points will be used for fitting atomic charges
 Fitting point charges to electrostatic potential
 Charges from ESP fit, RMS=   0.00155 RRMS=   0.76372:
 ESP charges:
               1
     1  C   -0.307378
     2  C    0.310001
     3  H    0.059828
     4  H    0.069904
     5  H    0.069904
     6  C   -0.293277
     7  H   -0.048910
     8  H   -0.048907
     9  H    0.055582
    10  H    0.066627
    11  H    0.066628
 Sum of ESP charges =   0.00000
 ESP charges with hydrogens summed into heavy atoms:
               1
     1  C   -0.107742
     2  C    0.212184
     6  C   -0.104441
 Charge=   0.00000 Dipole=    -0.0004     0.0443    -0.0000 Tot=     0.0443
 -----------------------------------------------------------------

              Electrostatic Properties (Atomic Units)

 -----------------------------------------------------------------
    Center     Electric         -------- Electric Field --------
               Potential          X             Y             Z
 -----------------------------------------------------------------
    1 Atom    -14.740409
    2 Atom    -14.730046
    3 Atom     -1.119527
    4 Atom     -1.120231
    5 Atom     -1.120231
    6 Atom    -14.740409
    7 Atom     -1.125249
    8 Atom     -1.125249
    9 Atom     -1.119528
   10 Atom     -1.120230
   11 Atom     -1.120230
 -----------------------------------------------------------------
 Calling FoFJK, ICntrl=      2527 FMM=F ISym2X=0 I1Cent= 0 IOpClX= 0 NMat=1 NMatS=1 NMatT=0.
 ***** Axes restored to original set *****
 -------------------------------------------------------------------
 Center     Atomic                   Forces (Hartrees/Bohr)
 Number     Number              X              Y              Z
 -------------------------------------------------------------------
      1        6          -0.000121549   -0.000077712    0.000000141
      2        6          -0.000009366    0.000154369   -0.000000621
      3        1           0.000003880   -0.000007253   -0.000000292
      4        1           0.000015550    0.000012330   -0.000005314
      5        1           0.000015564    0.000011623    0.000005544
      6        6           0.000138576   -0.000079926    0.000000654
      7        1           0.000000360   -0.000014637   -0.000015355
      8        1           0.000001039   -0.000013511    0.000015684
      9        1          -0.000007832   -0.000006713    0.000000295
     10        1          -0.000018071    0.000010673    0.000004321
     11        1          -0.000018152    0.000010755   -0.000005055
 -------------------------------------------------------------------
 Cartesian Forces:  Max     0.000154369 RMS     0.000047077

 GradGradGradGradGradGradGradGradGradGradGradGradGradGradGradGradGradGrad
 Berny optimization.
 FormGI is forming the generalized inverse of G from B-inverse, IUseBI=4.
 Internal  Forces:  Max     0.000114817 RMS     0.000025983
 Search for a local minimum.
 Step number   1 out of a maximum of   56 on scan point     1 out of    24
 All quantities printed in internal units (Hartrees-Bohrs-Radians)
 Mixed Optimization -- En-DIIS/RFO-DIIS
 Second derivative matrix not updated -- first step.
 ITU=  0
     Eigenvalues ---    0.00322   0.01574   0.04278   0.04786   0.05398
     Eigenvalues ---    0.05486   0.05486   0.08353   0.11626   0.16000
     Eigenvalues ---    0.16000   0.16000   0.16000   0.16000   0.16000
     Eigenvalues ---    0.21889   0.29096   0.29098   0.32918   0.32918
     Eigenvalues ---    0.33073   0.33073   0.33073   0.33073   0.33201
     Eigenvalues ---    0.332021000.000001000.000001000.000001000.00000
     Eigenvalues --- 1000.000001000.000001000.000001000.000001000.00000
     Eigenvalues --- 1000.000001000.000001000.000001000.000001000.00000
     Eigenvalues --- 1000.000001000.000001000.000001000.000001000.00000
     Eigenvalues --- 1000.00000
 RFO step:  Lambda=-1.35646747D-07 EMin= 3.22205119D-03
 Linear search not attempted -- first point.
 Iteration  1 RMS(Cart)=  0.00017872 RMS(Int)=  0.00000003
 Iteration  2 RMS(Cart)=  0.00000003 RMS(Int)=  0.00000001
 Iteration  1 RMS(Cart)=  0.00000000 RMS(Int)=  0.00000000
 Variable       Old X    -DE/DX   Delta X   Delta X   Delta X     New X
                                 (Linear)    (Quad)   (Total)
    R1        2.89803   0.00011   0.00000   0.00036   0.00036   2.89839
    R2        2.08698  -0.00001   0.00000  -0.00002  -0.00002   2.08696
    R3        2.08924  -0.00000   0.00000  -0.00001  -0.00001   2.08923
    R4        2.08924  -0.00000   0.00000  -0.00001  -0.00001   2.08923
    R5        2.89798   0.00011   0.00000   0.00039   0.00039   2.89838
    R6        2.09195   0.00000   0.00000   0.00001   0.00001   2.09196
    R7        2.09195   0.00000   0.00000   0.00001   0.00001   2.09196
    R8        2.08700  -0.00001   0.00000  -0.00003  -0.00003   2.08697
    R9        2.08924  -0.00000   0.00000  -0.00001  -0.00001   2.08923
   R10        2.08924  -0.00000   0.00000  -0.00001  -0.00001   2.08923
    A1        1.94970   0.00002   0.00000   0.00011   0.00011   1.94981
    A2        1.93846  -0.00003   0.00000  -0.00017  -0.00017   1.93829
    A3        1.93845  -0.00002   0.00000  -0.00016  -0.00016   1.93829
    A4        1.87971   0.00001   0.00000   0.00005   0.00005   1.87976
    A5        1.87970   0.00001   0.00000   0.00006   0.00006   1.87976
    A6        1.87463   0.00002   0.00000   0.00012   0.00012   1.87475
    A7        1.96795  -0.00003   0.00000  -0.00021  -0.00021   1.96775
    A8        1.91032   0.00001   0.00000  -0.00000  -0.00000   1.91032
    A9        1.91031   0.00001   0.00000   0.00000   0.00000   1.91032
   A10        1.91034   0.00001   0.00000  -0.00001  -0.00001   1.91033
   A11        1.91034   0.00001   0.00000  -0.00001  -0.00001   1.91033
   A12        1.85091   0.00001   0.00000   0.00025   0.00025   1.85116
   A13        1.94972   0.00001   0.00000   0.00010   0.00010   1.94982
   A14        1.93848  -0.00003   0.00000  -0.00018  -0.00018   1.93830
   A15        1.93848  -0.00003   0.00000  -0.00018  -0.00018   1.93830
   A16        1.87967   0.00001   0.00000   0.00008   0.00008   1.87975
   A17        1.87967   0.00001   0.00000   0.00008   0.00008   1.87975
   A18        1.87464   0.00002   0.00000   0.00011   0.00011   1.87475
    D1        3.14159   0.00000   0.00000   0.00000  -0.00000   3.14159
    D2       -1.01081  -0.00001   0.00000  -0.00015  -0.00015  -1.01096
    D3        1.01081   0.00001   0.00000   0.00015   0.00015   1.01096
    D4       -1.04255   0.00000   0.00000   0.00003   0.00003  -1.04252
    D5        1.08824  -0.00001   0.00000  -0.00012  -0.00012   1.08812
    D6        3.10986   0.00001   0.00000   0.00018   0.00018   3.11004
    D7        1.04255  -0.00000   0.00000  -0.00004  -0.00004   1.04251
    D8       -3.10984  -0.00001   0.00000  -0.00019  -0.00019  -3.11004
    D9       -1.08823   0.00001   0.00000   0.00011   0.00011  -1.08812
   D10        3.14154  -0.00000   0.00000   0.00004   0.00004   3.14158
   D11       -1.04263   0.00000   0.00000   0.00009   0.00009  -1.04253
   D12        1.04252  -0.00000   0.00000  -0.00001  -0.00001   1.04251
   D13        1.01076   0.00001   0.00000   0.00019   0.00019   1.01095
   D14        3.10978   0.00001   0.00000   0.00024   0.00024   3.11002
   D15       -1.08826   0.00000   0.00000   0.00014   0.00014  -1.08812
   D16       -1.01088  -0.00001   0.00000  -0.00010  -0.00010  -1.01098
   D17        1.08814  -0.00000   0.00000  -0.00005  -0.00005   1.08809
   D18       -3.10990  -0.00001   0.00000  -0.00015  -0.00015  -3.11005
         Item               Value     Threshold  Converged?
 Maximum Force            0.000115     0.000450     YES
 RMS     Force            0.000026     0.000300     YES
 Maximum Displacement     0.000429     0.001800     YES
 RMS     Displacement     0.000179     0.001200     YES
 Predicted change in Energy=-6.782214D-08
 Optimization completed.
    -- Stationary point found.
                           ----------------------------
                           !   Optimized Parameters   !
                           ! (Angstroms and Degrees)  !
 --------------------------                            --------------------------
 ! Name  Definition              Value          Derivative Info.                !
 --------------------------------------------------------------------------------
 ! R1    R(1,2)                  1.5336         -DE/DX =    0.0001              !
 ! R2    R(1,3)                  1.1044         -DE/DX =    0.0                 !
 ! R3    R(1,4)                  1.1056         -DE/DX =    0.0                 !
 ! R4    R(1,5)                  1.1056         -DE/DX =    0.0                 !
 ! R5    R(2,6)                  1.5335         -DE/DX =    0.0001              !
 ! R6    R(2,7)                  1.107          -DE/DX =    0.0                 !
 ! R7    R(2,8)                  1.107          -DE/DX =    0.0                 !
 ! R8    R(6,9)                  1.1044         -DE/DX =    0.0                 !
 ! R9    R(6,10)                 1.1056         -DE/DX =    0.0                 !
 ! R10   R(6,11)                 1.1056         -DE/DX =    0.0                 !
 ! A1    A(2,1,3)              111.7098         -DE/DX =    0.0                 !
 ! A2    A(2,1,4)              111.0656         -DE/DX =    0.0                 !
 ! A3    A(2,1,5)              111.0652         -DE/DX =    0.0                 !
 ! A4    A(3,1,4)              107.6993         -DE/DX =    0.0                 !
 ! A5    A(3,1,5)              107.699          -DE/DX =    0.0                 !
 ! A6    A(4,1,5)              107.4085         -DE/DX =    0.0                 !
 ! A7    A(1,2,6)              112.7553         -DE/DX =    0.0                 !
 ! A8    A(1,2,7)              109.4533         -DE/DX =    0.0                 !
 ! A9    A(1,2,8)              109.4528         -DE/DX =    0.0                 !
 ! A10   A(6,2,7)              109.4542         -DE/DX =    0.0                 !
 ! A11   A(6,2,8)              109.4542         -DE/DX =    0.0                 !
 ! A12   A(7,2,8)              106.0495         -DE/DX =    0.0                 !
 ! A13   A(2,6,9)              111.7108         -DE/DX =    0.0                 !
 ! A14   A(2,6,10)             111.0665         -DE/DX =    0.0                 !
 ! A15   A(2,6,11)             111.0667         -DE/DX =    0.0                 !
 ! A16   A(9,6,10)             107.6971         -DE/DX =    0.0                 !
 ! A17   A(9,6,11)             107.697          -DE/DX =    0.0                 !
 ! A18   A(10,6,11)            107.4092         -DE/DX =    0.0                 !
 ! D1    D(3,1,2,6)            179.9999         -DE/DX =    0.0                 !
 ! D2    D(3,1,2,7)            -57.915          -DE/DX =    0.0                 !
 ! D3    D(3,1,2,8)             57.9151         -DE/DX =    0.0                 !
 ! D4    D(4,1,2,6)            -59.7335         -DE/DX =    0.0                 !
 ! D5    D(4,1,2,7)             62.3517         -DE/DX =    0.0                 !
 ! D6    D(4,1,2,8)            178.1818         -DE/DX =    0.0                 !
 ! D7    D(5,1,2,6)             59.7339         -DE/DX =    0.0                 !
 ! D8    D(5,1,2,7)           -178.181          -DE/DX =    0.0                 !
 ! D9    D(5,1,2,8)            -62.3508         -DE/DX =    0.0                 !
 ! D10   D(1,2,6,9)            179.9968         -DE/DX =    0.0                 !
 ! D11   D(1,2,6,10)           -59.7381         -DE/DX =    0.0                 !
 ! D12   D(1,2,6,11)            59.7317         -DE/DX =    0.0                 !
 ! D13   D(7,2,6,9)             57.9122         -DE/DX =    0.0                 !
 ! D14   D(7,2,6,10)           178.1773         -DE/DX =    0.0                 !
 ! D15   D(7,2,6,11)           -62.3529         -DE/DX =    0.0                 !
 ! D16   D(8,2,6,9)            -57.9192         -DE/DX =    0.0                 !
 ! D17   D(8,2,6,10)            62.3459         -DE/DX =    0.0                 !
 ! D18   D(8,2,6,11)          -178.1843         -DE/DX =    0.0                 !
 --------------------------------------------------------------------------------
 Iteration  1 RMS(Cart)=  0.02083625 RMS(Int)=  0.03098357
 Iteration  2 RMS(Cart)=  0.00648713 RMS(Int)=  0.03046575
 Iteration  3 RMS(Cart)=  0.00015453 RMS(Int)=  0.03046556
 Iteration  4 RMS(Cart)=  0.00000525 RMS(Int)=  0.03046556
 Iteration  5 RMS(Cart)=  0.00000022 RMS(Int)=  0.03046556
 Iteration  1 RMS(Cart)=  0.01699648 RMS(Int)=  0.01897501
 Iteration  2 RMS(Cart)=  0.01060074 RMS(Int)=  0.02108331
 Iteration  3 RMS(Cart)=  0.00660635 RMS(Int)=  0.02413661
 Iteration  4 RMS(Cart)=  0.00411473 RMS(Int)=  0.02648913
 Iteration  5 RMS(Cart)=  0.00256189 RMS(Int)=  0.02808285
 Iteration  6 RMS(Cart)=  0.00159469 RMS(Int)=  0.02911613
 Iteration  7 RMS(Cart)=  0.00099249 RMS(Int)=  0.02977340
 Iteration  8 RMS(Cart)=  0.00061764 RMS(Int)=  0.03018753
 Iteration  9 RMS(Cart)=  0.00038434 RMS(Int)=  0.03044712
 Iteration 10 RMS(Cart)=  0.00023916 RMS(Int)=  0.03060937
 Iteration 11 RMS(Cart)=  0.00014881 RMS(Int)=  0.03071060
 Iteration 12 RMS(Cart)=  0.00009260 RMS(Int)=  0.03077369
 Iteration 13 RMS(Cart)=  0.00005762 RMS(Int)=  0.03081298
 Iteration 14 RMS(Cart)=  0.00003585 RMS(Int)=  0.03083745
 Iteration 15 RMS(Cart)=  0.00002231 RMS(Int)=  0.03085268
 Iteration 16 RMS(Cart)=  0.00001388 RMS(Int)=  0.03086216
 Iteration 17 RMS(Cart)=  0.00000864 RMS(Int)=  0.03086805
 Iteration 18 RMS(Cart)=  0.00000537 RMS(Int)=  0.03087172
 Iteration 19 RMS(Cart)=  0.00000334 RMS(Int)=  0.03087401
 Iteration 20 RMS(Cart)=  0.00000208 RMS(Int)=  0.03087543
 Iteration 21 RMS(Cart)=  0.00000129 RMS(Int)=  0.03087631
 Iteration 22 RMS(Cart)=  0.00000081 RMS(Int)=  0.03087686
 GradGradGradGradGradGradGradGradGradGradGradGradGradGradGradGradGradGrad

                          Input orientation:                          
 ---------------------------------------------------------------------
 Center     Atomic      Atomic             Coordinates (Angstroms)
 Number     Number       Type             X           Y           Z
 ---------------------------------------------------------------------
      1          6           0       -1.276839   -0.256774    0.052402
      2          6           0        0.000898    0.591540    0.066387
      3          1           0       -2.175881    0.354424   -0.151556
      4          1           0       -1.242538   -0.914739   -0.835707
      5          1           0       -1.394131   -0.906581    0.939412
      6          6           0        1.273756   -0.260110   -0.020876
      7          1           0        0.037997    1.221357   -0.843418
      8          1           0       -0.035089    1.290473    0.924273
      9          1           0        2.182988    0.365954   -0.053759
     10          1           0        1.361233   -0.934239    0.851157
     11          1           0        1.267633   -0.891804   -0.928343
 ---------------------------------------------------------------------
                    Distance matrix (angstroms):
                    1          2          3          4          5
     1  C    0.000000
     2  C    1.533768   0.000000
     3  H    1.106091   2.200475   0.000000
     4  H    1.105817   2.151461   1.717546   0.000000
     5  H    1.105800   2.225454   1.841597   1.781599   0.000000
     6  C    2.551649   1.533978   3.506383   2.724743   2.908212
     7  H    2.171671   1.107154   2.476187   2.490529   3.123715
     8  H    2.167043   1.107146   2.572273   3.068945   2.583462
     9  H    3.517024   2.197007   4.359981   3.739765   3.924476
    10  H    2.838378   2.189606   3.895800   3.102502   2.756916
    11  H    2.799903   2.189615   3.743563   2.511984   3.251725
                    6          7          8          9         10
     6  C    0.000000
     7  H    2.097241   0.000000
     8  H    2.238457   1.770550   0.000000
     9  H    1.104419   2.440545   2.594446   0.000000
    10  H    1.105687   3.044525   2.627623   1.784560   0.000000
    11  H    1.105700   2.446358   3.145092   1.784580   1.782466
                   11
    11  H    0.000000
 Stoichiometry    C3H8
 Framework group  C1[X(C3H8)]
 Deg. of freedom    27
 Full point group                 C1      NOp   1
 Largest Abelian subgroup         C1      NOp   1
 Largest concise Abelian subgroup C1      NOp   1
                         Standard orientation:                         
 ---------------------------------------------------------------------
 Center     Atomic      Atomic             Coordinates (Angstroms)
 Number     Number       Type             X           Y           Z
 ---------------------------------------------------------------------
      1          6           0        1.276897   -0.257326   -0.016556
      2          6           0       -0.000350    0.591831   -0.020703
      3          1           0        2.171016    0.343210    0.235129
      4          1           0        1.222736   -0.954934    0.839739
      5          1           0        1.414230   -0.866260   -0.929318
      6          6           0       -1.274700   -0.261823   -0.000874
      7          1           0       -0.058019    1.179691    0.915718
      8          1           0        0.054810    1.328991   -0.844914
      9          1           0       -2.184551    0.362872    0.039973
     10          1           0       -1.342417   -0.895559   -0.904388
     11          1           0       -1.288887   -0.934101    0.876857
 ---------------------------------------------------------------------
 Rotational constants (GHZ):          29.0075901           8.3599709           7.4040939
 Standard basis: 6-31+G(d) (6D, 7F)
 There are    73 symmetry adapted cartesian basis functions of A   symmetry.
 There are    73 symmetry adapted basis functions of A   symmetry.
    73 basis functions,   128 primitive gaussians,    73 cartesian basis functions
    13 alpha electrons       13 beta electrons
       nuclear repulsion energy        81.9914365364 Hartrees.
 NAtoms=   11 NActive=   11 NUniq=   11 SFac= 1.00D+00 NAtFMM=   60 NAOKFM=F Big=F
 Integral buffers will be    131072 words long.
 Raffenetti 2 integral format.
 Two-electron integral symmetry is turned on.
 Nuclear repulsion after empirical dispersion term =       81.9854177527 Hartrees.
 One-electron integrals computed using PRISM.
 NBasis=    73 RedAO= T EigKep=  2.25D-04  NBF=    73
 NBsUse=    73 1.00D-06 EigRej= -1.00D+00 NBFU=    73
 Initial guess from the checkpoint file:  "CC_H8C3_d91b46644317dee9c2b868166c66a18c~1.chk"
 B after Tr=    -0.000000    0.000000   -0.000000
         Rot=    0.999835   -0.017324    0.005526   -0.000234 Ang=  -2.08 deg.
 ExpMin= 4.38D-02 ExpMax= 3.05D+03 ExpMxC= 4.57D+02 IAcc=2 IRadAn=         4 AccDes= 0.00D+00
 Harris functional with IExCor= 1009 and IRadAn=       4 diagonalized for initial guess.
 HarFok:  IExCor= 1009 AccDes= 0.00D+00 IRadAn=         4 IDoV= 1 UseB2=F ITyADJ=14
 ICtDFT=  3500011 ScaDFX=  1.000000  1.000000  1.000000  1.000000
 FoFCou: FMM=F IPFlag=           0 FMFlag=      100000 FMFlg1=           0
         NFxFlg=           0 DoJE=T BraDBF=F KetDBF=T FulRan=T
         wScrn=  0.000000 ICntrl=       500 IOpCl=  0 I1Cent=   200000004 NGrid=           0
         NMat0=    1 NMatS0=      1 NMatT0=    0 NMatD0=    1 NMtDS0=    0 NMtDT0=    0
 Petite list used in FoFCou.
 Keep J ints in memory in canonical form, NReq=14405706.
 Requested convergence on RMS density matrix=1.00D-08 within 128 cycles.
 Requested convergence on MAX density matrix=1.00D-06.
 Requested convergence on             energy=1.00D-06.
 No special actions if energy rises.
 SCF Done:  E(RPBE-PBE) =  -118.962639005     A.U. after    9 cycles
            NFock=  9  Conv=0.86D-08     -V/T= 2.0113
 Calling FoFJK, ICntrl=      2527 FMM=F ISym2X=0 I1Cent= 0 IOpClX= 0 NMat=1 NMatS=1 NMatT=0.
 ***** Axes restored to original set *****
 -------------------------------------------------------------------
 Center     Atomic                   Forces (Hartrees/Bohr)
 Number     Number              X              Y              Z
 -------------------------------------------------------------------
      1        6           0.000148521   -0.001028746   -0.017078644
      2        6          -0.000983172    0.000325748   -0.008877498
      3        1          -0.000685346    0.001142708    0.010805133
      4        1           0.002031720   -0.005465308    0.001132485
      5        1          -0.001602687    0.004699347    0.000350912
      6        6           0.001239698   -0.000588358    0.011044649
      7        1          -0.006911101    0.003618692    0.001030809
      8        1           0.006688601   -0.002737462    0.001110173
      9        1           0.000020672   -0.000003917    0.000308838
     10        1           0.001445308   -0.001003312   -0.000087255
     11        1          -0.001392215    0.001040609    0.000260398
 -------------------------------------------------------------------
 Cartesian Forces:  Max     0.017078644 RMS     0.004913694

 GradGradGradGradGradGradGradGradGradGradGradGradGradGradGradGradGradGrad
 Berny optimization.
 FormGI is forming the generalized inverse of G from B-inverse, IUseBI=4.
 Internal  Forces:  Max     0.009441109 RMS     0.003099125
 Search for a local minimum.
 Step number   1 out of a maximum of   56 on scan point     2 out of    24
 All quantities printed in internal units (Hartrees-Bohrs-Radians)
 Mixed Optimization -- RFO/linear search
 Second derivative matrix not updated -- first step.
 ITU=  0
     Eigenvalues ---    0.00322   0.01543   0.04010   0.04902   0.05397
     Eigenvalues ---    0.05488   0.05594   0.08302   0.11655   0.16000
     Eigenvalues ---    0.16000   0.16000   0.16000   0.16000   0.16000
     Eigenvalues ---    0.21865   0.29096   0.29098   0.32918   0.32918
     Eigenvalues ---    0.33073   0.33073   0.33073   0.33073   0.33201
     Eigenvalues ---    0.332021000.000001000.000001000.000001000.00000
     Eigenvalues --- 1000.000001000.000001000.000001000.000001000.00000
     Eigenvalues --- 1000.000001000.000001000.000001000.000001000.00000
     Eigenvalues --- 1000.000001000.000001000.000001000.000001000.00000
     Eigenvalues --- 1000.00000
 RFO step:  Lambda=-4.10156237D-03 EMin= 3.22205119D-03
 Linear search not attempted -- first point.
 Iteration  1 RMS(Cart)=  0.04957243 RMS(Int)=  0.00228673
 Iteration  2 RMS(Cart)=  0.00212320 RMS(Int)=  0.00054611
 Iteration  3 RMS(Cart)=  0.00000249 RMS(Int)=  0.00054611
 Iteration  4 RMS(Cart)=  0.00000000 RMS(Int)=  0.00054611
 Iteration  1 RMS(Cart)=  0.00001376 RMS(Int)=  0.00001538
 Iteration  2 RMS(Cart)=  0.00000857 RMS(Int)=  0.00001709
 Iteration  3 RMS(Cart)=  0.00000534 RMS(Int)=  0.00001956
 Iteration  4 RMS(Cart)=  0.00000333 RMS(Int)=  0.00002147
 Iteration  5 RMS(Cart)=  0.00000207 RMS(Int)=  0.00002277
 Iteration  6 RMS(Cart)=  0.00000129 RMS(Int)=  0.00002361
 Iteration  7 RMS(Cart)=  0.00000080 RMS(Int)=  0.00002414
 Variable       Old X    -DE/DX   Delta X   Delta X   Delta X     New X
                                 (Linear)    (Quad)   (Total)
    R1        2.89840   0.00049   0.00000   0.00168   0.00168   2.90008
    R2        2.09021  -0.00080   0.00000  -0.00239  -0.00239   2.08782
    R3        2.08969   0.00241   0.00000   0.00718   0.00718   2.09688
    R4        2.08966  -0.00231   0.00000  -0.00690  -0.00690   2.08276
    R5        2.89880   0.00074   0.00000   0.00251   0.00251   2.90131
    R6        2.09222   0.00098   0.00000   0.00294   0.00294   2.09516
    R7        2.09220  -0.00109   0.00000  -0.00326  -0.00326   2.08895
    R8        2.08705   0.00001   0.00000   0.00002   0.00002   2.08707
    R9        2.08945   0.00066   0.00000   0.00196   0.00196   2.09141
   R10        2.08947  -0.00080   0.00000  -0.00239  -0.00239   2.08708
    A1        1.95324   0.00014   0.00000  -0.00209  -0.00342   1.94982
    A2        1.88659   0.00318   0.00000   0.03500   0.03478   1.92137
    A3        1.98894  -0.00298   0.00000  -0.03182  -0.03252   1.95642
    A4        1.77818   0.00450   0.00000   0.05699   0.05614   1.83433
    A5        1.96753  -0.00326   0.00000  -0.04407  -0.04565   1.92188
    A6        1.87325  -0.00035   0.00000   0.00098   0.00138   1.87463
    A7        1.96457   0.00078   0.00000   0.00340   0.00274   1.96730
    A8        1.91246  -0.00457   0.00000  -0.01962  -0.02052   1.89194
    A9        1.90620   0.00457   0.00000   0.01764   0.01679   1.92299
   A10        1.81448   0.00757   0.00000   0.07124   0.07181   1.88629
   A11        2.00594  -0.00806   0.00000  -0.06753  -0.06708   1.93886
   A12        1.85325  -0.00043   0.00000  -0.00272  -0.00145   1.85180
   A13        1.94991  -0.00002   0.00000  -0.00010  -0.00018   1.94973
   A14        1.93829   0.00283   0.00000   0.01948   0.01949   1.95778
   A15        1.93829  -0.00275   0.00000  -0.01896  -0.01895   1.91934
   A16        1.87965  -0.00104   0.00000  -0.00220  -0.00227   1.87738
   A17        1.87966   0.00101   0.00000   0.00203   0.00195   1.88162
   A18        1.87486  -0.00004   0.00000  -0.00027  -0.00016   1.87470
    D1       -2.87980  -0.00944   0.00000   0.00000   0.00001  -2.87979
    D2       -0.87000  -0.00251   0.00000   0.07750   0.07743  -0.79256
    D3        1.15331  -0.00301   0.00000   0.07321   0.07344   1.22676
    D4       -0.93547  -0.00223   0.00000   0.08646   0.08675  -0.84872
    D5        1.07434   0.00470   0.00000   0.16397   0.16417   1.23851
    D6        3.09764   0.00420   0.00000   0.15967   0.16018  -3.02536
    D7        1.14522  -0.00234   0.00000   0.09209   0.09153   1.23676
    D8       -3.12816   0.00459   0.00000   0.16959   0.16896  -2.95920
    D9       -1.10485   0.00410   0.00000   0.16530   0.16497  -0.93988
   D10        3.09862  -0.00056   0.00000   0.01966   0.01970   3.11832
   D11       -1.08556   0.00005   0.00000   0.03016   0.03024  -1.05532
   D12        0.99960   0.00005   0.00000   0.03016   0.03015   1.02975
   D13        1.03040  -0.00009   0.00000  -0.00190  -0.00258   1.02782
   D14        3.12940   0.00052   0.00000   0.00860   0.00796   3.13737
   D15       -1.06861   0.00052   0.00000   0.00860   0.00787  -1.06074
   D16       -0.98742  -0.00036   0.00000  -0.01016  -0.00951  -0.99693
   D17        1.11158   0.00025   0.00000   0.00034   0.00103   1.11261
   D18       -3.08644   0.00025   0.00000   0.00034   0.00094  -3.08550
         Item               Value     Threshold  Converged?
 Maximum Force            0.004613     0.000450     NO 
 RMS     Force            0.002139     0.000300     NO 
 Maximum Displacement     0.161204     0.001800     NO 
 RMS     Displacement     0.049587     0.001200     NO 
 Predicted change in Energy=-2.365397D-03
 GradGradGradGradGradGradGradGradGradGradGradGradGradGradGradGradGradGrad

                          Input orientation:                          
 ---------------------------------------------------------------------
 Center     Atomic      Atomic             Coordinates (Angstroms)
 Number     Number       Type             X           Y           Z
 ---------------------------------------------------------------------
      1          6           0       -1.277859   -0.259114    0.026461
      2          6           0        0.000574    0.589533    0.050352
      3          1           0       -2.171580    0.354006   -0.187982
      4          1           0       -1.229289   -0.998162   -0.799798
      5          1           0       -1.419845   -0.821276    0.963770
      6          6           0        1.277504   -0.259813   -0.021987
      7          1           0       -0.012401    1.266647   -0.827479
      8          1           0        0.007694    1.243290    0.941705
      9          1           0        2.186065    0.368078   -0.027525
     10          1           0        1.361417   -0.961228    0.829963
     11          1           0        1.277746   -0.862461   -0.947508
 ---------------------------------------------------------------------
                    Distance matrix (angstroms):
                    1          2          3          4          5
     1  C    0.000000
     2  C    1.534655   0.000000
     3  H    1.104826   2.197846   0.000000
     4  H    1.109619   2.180847   1.758006   0.000000
     5  H    1.102149   2.200524   1.809123   1.782631   0.000000
     6  C    2.555823   1.535309   3.507208   2.726566   2.926201
     7  H    2.158366   1.108710   2.429799   2.571175   3.090128
     8  H    2.178884   1.105422   2.610796   3.096299   2.510137
     9  H    3.520661   2.198063   4.360621   3.758679   3.924260
    10  H    2.846814   2.205571   3.904883   3.060922   2.787994
    11  H    2.800671   2.176047   3.735574   2.515046   3.306309
                    6          7          8          9         10
     6  C    0.000000
     7  H    2.154704   0.000000
     8  H    2.190990   1.769452   0.000000
     9  H    1.104428   2.506114   2.539824   0.000000
    10  H    1.106726   3.098049   2.589392   1.783924   0.000000
    11  H    1.104434   2.492385   3.101023   1.784836   1.782178
                   11
    11  H    0.000000
 Stoichiometry    C3H8
 Framework group  C1[X(C3H8)]
 Deg. of freedom    27
 Full point group                 C1      NOp   1
 Largest Abelian subgroup         C1      NOp   1
 Largest concise Abelian subgroup C1      NOp   1
                         Standard orientation:                         
 ---------------------------------------------------------------------
 Center     Atomic      Atomic             Coordinates (Angstroms)
 Number     Number       Type             X           Y           Z
 ---------------------------------------------------------------------
      1          6           0        1.278054   -0.259160   -0.009603
      2          6           0       -0.000060    0.590303   -0.010413
      3          1           0        2.168311    0.342039    0.248547
      4          1           0        1.217212   -1.038431    0.777981
      5          1           0        1.434258   -0.773998   -0.971516
      6          6           0       -1.277749   -0.260913    0.000293
      7          1           0       -0.000451    1.222831    0.900162
      8          1           0        0.006097    1.287663   -0.868090
      9          1           0       -2.186428    0.366405    0.023438
     10          1           0       -1.348672   -0.918964   -0.886713
     11          1           0       -1.291792   -0.908926    0.894528
 ---------------------------------------------------------------------
 Rotational constants (GHZ):          29.0332347           8.3352676           7.3846444
 Standard basis: 6-31+G(d) (6D, 7F)
 There are    73 symmetry adapted cartesian basis functions of A   symmetry.
 There are    73 symmetry adapted basis functions of A   symmetry.
    73 basis functions,   128 primitive gaussians,    73 cartesian basis functions
    13 alpha electrons       13 beta electrons
       nuclear repulsion energy        81.9327359027 Hartrees.
 NAtoms=   11 NActive=   11 NUniq=   11 SFac= 1.00D+00 NAtFMM=   60 NAOKFM=F Big=F
 Integral buffers will be    131072 words long.
 Raffenetti 2 integral format.
 Two-electron integral symmetry is turned on.
 Nuclear repulsion after empirical dispersion term =       81.9267227571 Hartrees.
 One-electron integrals computed using PRISM.
 NBasis=    73 RedAO= T EigKep=  2.22D-04  NBF=    73
 NBsUse=    73 1.00D-06 EigRej= -1.00D+00 NBFU=    73
 Initial guess from the checkpoint file:  "CC_H8C3_d91b46644317dee9c2b868166c66a18c~1.chk"
 B after Tr=    -0.000000    0.000000   -0.000000
         Rot=    0.999995   -0.002588   -0.001781    0.000115 Ang=  -0.36 deg.
 ExpMin= 4.38D-02 ExpMax= 3.05D+03 ExpMxC= 4.57D+02 IAcc=2 IRadAn=         4 AccDes= 0.00D+00
 Harris functional with IExCor= 1009 and IRadAn=       4 diagonalized for initial guess.
 HarFok:  IExCor= 1009 AccDes= 0.00D+00 IRadAn=         4 IDoV= 1 UseB2=F ITyADJ=14
 ICtDFT=  3500011 ScaDFX=  1.000000  1.000000  1.000000  1.000000
 FoFCou: FMM=F IPFlag=           0 FMFlag=      100000 FMFlg1=           0
         NFxFlg=           0 DoJE=T BraDBF=F KetDBF=T FulRan=T
         wScrn=  0.000000 ICntrl=       500 IOpCl=  0 I1Cent=   200000004 NGrid=           0
         NMat0=    1 NMatS0=      1 NMatT0=    0 NMatD0=    1 NMtDS0=    0 NMtDT0=    0
 Petite list used in FoFCou.
 Keep J ints in memory in canonical form, NReq=14405706.
 Requested convergence on RMS density matrix=1.00D-08 within 128 cycles.
 Requested convergence on MAX density matrix=1.00D-06.
 Requested convergence on             energy=1.00D-06.
 No special actions if energy rises.
 SCF Done:  E(RPBE-PBE) =  -118.965025928     A.U. after    9 cycles
            NFock=  9  Conv=0.38D-08     -V/T= 2.0113
 Calling FoFJK, ICntrl=      2527 FMM=F ISym2X=0 I1Cent= 0 IOpClX= 0 NMat=1 NMatS=1 NMatT=0.
 ***** Axes restored to original set *****
 -------------------------------------------------------------------
 Center     Atomic                   Forces (Hartrees/Bohr)
 Number     Number              X              Y              Z
 -------------------------------------------------------------------
      1        6           0.000587741   -0.001392409   -0.007949246
      2        6          -0.000251172   -0.000174103   -0.004724239
      3        1          -0.000524061    0.000558468    0.005339047
      4        1           0.001112422   -0.000052409    0.002020614
      5        1          -0.001482538    0.000363753    0.001238194
      6        6          -0.000157896    0.000518572    0.002366453
      7        1           0.000182233    0.000434610    0.001229452
      8        1           0.000743910   -0.000432922    0.000882932
      9        1          -0.000011952    0.000028943    0.000049359
     10        1          -0.000944188    0.000714175   -0.000169938
     11        1           0.000745500   -0.000566679   -0.000282630
 -------------------------------------------------------------------
 Cartesian Forces:  Max     0.007949246 RMS     0.002042752

 GradGradGradGradGradGradGradGradGradGradGradGradGradGradGradGradGradGrad
 Berny optimization.
 Using GEDIIS/GDIIS optimizer.
 FormGI is forming the generalized inverse of G from B-inverse, IUseBI=4.
 Internal  Forces:  Max     0.003496073 RMS     0.001064754
 Search for a local minimum.
 Step number   2 out of a maximum of   56 on scan point     2 out of    24
 All quantities printed in internal units (Hartrees-Bohrs-Radians)
 Mixed Optimization -- En-DIIS/RFO-DIIS
 Update second derivatives using D2CorX and points    1    2
 DE= -2.39D-03 DEPred=-2.37D-03 R= 1.01D+00
 TightC=F SS=  1.41D+00  RLast= 3.96D-01 DXNew= 5.0454D-01 1.1882D+00
 Trust test= 1.01D+00 RLast= 3.96D-01 DXMaxT set to 5.05D-01
 ITU=  1  0
 Use linear search instead of GDIIS.
     Eigenvalues ---    0.00322   0.01386   0.04138   0.04823   0.05359
     Eigenvalues ---    0.05499   0.05572   0.08376   0.11918   0.15989
     Eigenvalues ---    0.16000   0.16000   0.16000   0.16000   0.17104
     Eigenvalues ---    0.21884   0.29088   0.29153   0.32918   0.32938
     Eigenvalues ---    0.33070   0.33073   0.33073   0.33192   0.33201
     Eigenvalues ---    0.337511000.000001000.000001000.000001000.00000
     Eigenvalues --- 1000.000001000.000001000.000001000.000001000.00000
     Eigenvalues --- 1000.000001000.000001000.000001000.000001000.00000
     Eigenvalues --- 1000.000001000.000001000.000001000.000001000.00000
     Eigenvalues --- 1000.00000
 RFO step:  Lambda=-2.97957234D-04 EMin= 3.22246521D-03
 Quartic linear search produced a step of  0.19724.
 Iteration  1 RMS(Cart)=  0.02254070 RMS(Int)=  0.00042764
 Iteration  2 RMS(Cart)=  0.00036997 RMS(Int)=  0.00016163
 Iteration  3 RMS(Cart)=  0.00000003 RMS(Int)=  0.00016163
 Iteration  1 RMS(Cart)=  0.00000184 RMS(Int)=  0.00000206
 Iteration  2 RMS(Cart)=  0.00000115 RMS(Int)=  0.00000229
 Iteration  3 RMS(Cart)=  0.00000071 RMS(Int)=  0.00000262
 Variable       Old X    -DE/DX   Delta X   Delta X   Delta X     New X
                                 (Linear)    (Quad)   (Total)
    R1        2.90008   0.00053   0.00033   0.00194   0.00227   2.90235
    R2        2.08782  -0.00030  -0.00047  -0.00073  -0.00120   2.08661
    R3        2.09688  -0.00142   0.00142  -0.00620  -0.00478   2.09209
    R4        2.08276   0.00106  -0.00136   0.00485   0.00349   2.08625
    R5        2.90131  -0.00078   0.00050  -0.00359  -0.00309   2.89822
    R6        2.09516  -0.00071   0.00058  -0.00301  -0.00243   2.09273
    R7        2.08895   0.00046  -0.00064   0.00215   0.00151   2.09046
    R8        2.08707   0.00001   0.00000   0.00002   0.00002   2.08709
    R9        2.09141  -0.00066   0.00039  -0.00266  -0.00227   2.08914
   R10        2.08708   0.00055  -0.00047   0.00233   0.00186   2.08893
    A1        1.94982   0.00015  -0.00067   0.00110   0.00002   1.94984
    A2        1.92137   0.00007   0.00686  -0.00066   0.00610   1.92747
    A3        1.95642   0.00005  -0.00641   0.00137  -0.00524   1.95118
    A4        1.83433   0.00220   0.01107   0.01606   0.02683   1.86116
    A5        1.92188  -0.00222  -0.00900  -0.01628  -0.02574   1.89614
    A6        1.87463  -0.00012   0.00027  -0.00076  -0.00039   1.87425
    A7        1.96730   0.00041   0.00054   0.00192   0.00217   1.96947
    A8        1.89194   0.00041  -0.00405   0.01746   0.01311   1.90505
    A9        1.92299  -0.00003   0.00331  -0.00949  -0.00644   1.91655
   A10        1.88629   0.00091   0.01416  -0.00180   0.01237   1.89866
   A11        1.93886  -0.00163  -0.01323  -0.00645  -0.01962   1.91924
   A12        1.85180  -0.00002  -0.00029  -0.00092  -0.00085   1.85095
   A13        1.94973   0.00003  -0.00004   0.00012   0.00003   1.94976
   A14        1.95778  -0.00171   0.00384  -0.01771  -0.01386   1.94393
   A15        1.91934   0.00148  -0.00374   0.01597   0.01224   1.93158
   A16        1.87738   0.00061  -0.00045   0.00121   0.00071   1.87808
   A17        1.88162  -0.00047   0.00038   0.00001   0.00034   1.88196
   A18        1.87470   0.00008  -0.00003   0.00070   0.00074   1.87544
    D1       -2.87979  -0.00350   0.00000   0.00000  -0.00000  -2.87979
    D2       -0.79256  -0.00183   0.01527   0.01065   0.02595  -0.76661
    D3        1.22676  -0.00165   0.01449   0.01429   0.02882   1.25558
    D4       -0.84872  -0.00064   0.01711   0.02009   0.03728  -0.81144
    D5        1.23851   0.00102   0.03238   0.03074   0.06323   1.30174
    D6       -3.02536   0.00121   0.03159   0.03438   0.06610  -2.95926
    D7        1.23676  -0.00072   0.01805   0.01959   0.03747   1.27423
    D8       -2.95920   0.00094   0.03332   0.03023   0.06342  -2.89578
    D9       -0.93988   0.00113   0.03254   0.03387   0.06629  -0.87359
   D10        3.11832   0.00109   0.00389   0.02865   0.03253  -3.13234
   D11       -1.05532   0.00068   0.00596   0.01777   0.02377  -1.03156
   D12        1.02975   0.00068   0.00595   0.01794   0.02385   1.05361
   D13        1.02782  -0.00028  -0.00051   0.00690   0.00621   1.03404
   D14        3.13737  -0.00069   0.00157  -0.00397  -0.00255   3.13482
   D15       -1.06074  -0.00069   0.00155  -0.00380  -0.00246  -1.06320
   D16       -0.99693   0.00012  -0.00188   0.01262   0.01092  -0.98601
   D17        1.11261  -0.00029   0.00020   0.00174   0.00216   1.11477
   D18       -3.08550  -0.00030   0.00019   0.00191   0.00224  -3.08326
         Item               Value     Threshold  Converged?
 Maximum Force            0.001714     0.000450     NO 
 RMS     Force            0.000662     0.000300     NO 
 Maximum Displacement     0.061787     0.001800     NO 
 RMS     Displacement     0.022525     0.001200     NO 
 Predicted change in Energy=-2.170153D-04
 GradGradGradGradGradGradGradGradGradGradGradGradGradGradGradGradGradGrad

                          Input orientation:                          
 ---------------------------------------------------------------------
 Center     Atomic      Atomic             Coordinates (Angstroms)
 Number     Number       Type             X           Y           Z
 ---------------------------------------------------------------------
      1          6           0       -1.278971   -0.261346    0.020884
      2          6           0        0.000537    0.588007    0.038671
      3          1           0       -2.172611    0.350554   -0.194102
      4          1           0       -1.222005   -1.029493   -0.774320
      5          1           0       -1.434304   -0.788580    0.978328
      6          6           0        1.277772   -0.258005   -0.032635
      7          1           0       -0.014062    1.284967   -0.821804
      8          1           0        0.017331    1.221651    0.945281
      9          1           0        2.185833    0.370216   -0.009161
     10          1           0        1.339494   -0.966716    0.813594
     11          1           0        1.301011   -0.851755   -0.964764
 ---------------------------------------------------------------------
                    Distance matrix (angstroms):
                    1          2          3          4          5
     1  C    0.000000
     2  C    1.535857   0.000000
     3  H    1.104188   2.198440   0.000000
     4  H    1.107089   2.184461   1.773368   0.000000
     5  H    1.103994   2.199253   1.793687   1.781822   0.000000
     6  C    2.557305   1.533672   3.507358   2.719223   2.942603
     7  H    2.168226   1.107423   2.434435   2.611151   3.091466
     8  H    2.175819   1.106223   2.617795   3.092027   2.479791
     9  H    3.522023   2.196643   4.362411   3.762714   3.927256
    10  H    2.825296   2.193280   3.884010   3.014414   2.784390
    11  H    2.824251   2.184269   3.755731   2.536428   3.355823
                    6          7          8          9         10
     6  C    0.000000
     7  H    2.161570   0.000000
     8  H    2.175871   1.768498   0.000000
     9  H    1.104440   2.517280   2.517599   0.000000
    10  H    1.105525   3.094628   2.560158   1.783425   0.000000
    11  H    1.105416   2.513053   3.097600   1.785862   1.782486
                   11
    11  H    0.000000
 Stoichiometry    C3H8
 Framework group  C1[X(C3H8)]
 Deg. of freedom    27
 Full point group                 C1      NOp   1
 Largest Abelian subgroup         C1      NOp   1
 Largest concise Abelian subgroup C1      NOp   1
                         Standard orientation:                         
 ---------------------------------------------------------------------
 Center     Atomic      Atomic             Coordinates (Angstroms)
 Number     Number       Type             X           Y           Z
 ---------------------------------------------------------------------
      1          6           0        1.279513   -0.258607   -0.004065
      2          6           0       -0.001383    0.588838   -0.004134
      3          1           0        2.167441    0.343010    0.258370
      4          1           0        1.209076   -1.065568    0.750586
      5          1           0        1.454415   -0.737178   -0.983443
      6          6           0       -1.277787   -0.261412    0.000237
      7          1           0       -0.004918    1.241995    0.890157
      8          1           0       -0.002241    1.266925   -0.878163
      9          1           0       -2.186684    0.365965   -0.009378
     10          1           0       -1.321613   -0.927081   -0.881323
     11          1           0       -1.317536   -0.900983    0.900967
 ---------------------------------------------------------------------
 Rotational constants (GHZ):          29.0973270           8.3266365           7.3789762
 Standard basis: 6-31+G(d) (6D, 7F)
 There are    73 symmetry adapted cartesian basis functions of A   symmetry.
 There are    73 symmetry adapted basis functions of A   symmetry.
    73 basis functions,   128 primitive gaussians,    73 cartesian basis functions
    13 alpha electrons       13 beta electrons
       nuclear repulsion energy        81.9341459945 Hartrees.
 NAtoms=   11 NActive=   11 NUniq=   11 SFac= 1.00D+00 NAtFMM=   60 NAOKFM=F Big=F
 Integral buffers will be    131072 words long.
 Raffenetti 2 integral format.
 Two-electron integral symmetry is turned on.
 Nuclear repulsion after empirical dispersion term =       81.9281342545 Hartrees.
 One-electron integrals computed using PRISM.
 NBasis=    73 RedAO= T EigKep=  2.21D-04  NBF=    73
 NBsUse=    73 1.00D-06 EigRej= -1.00D+00 NBFU=    73
 Initial guess from the checkpoint file:  "CC_H8C3_d91b46644317dee9c2b868166c66a18c~1.chk"
 B after Tr=     0.000000   -0.000000    0.000000
         Rot=    0.999998   -0.000478    0.001710   -0.000694 Ang=  -0.22 deg.
 ExpMin= 4.38D-02 ExpMax= 3.05D+03 ExpMxC= 4.57D+02 IAcc=2 IRadAn=         4 AccDes= 0.00D+00
 Harris functional with IExCor= 1009 and IRadAn=       4 diagonalized for initial guess.
 HarFok:  IExCor= 1009 AccDes= 0.00D+00 IRadAn=         4 IDoV= 1 UseB2=F ITyADJ=14
 ICtDFT=  3500011 ScaDFX=  1.000000  1.000000  1.000000  1.000000
 FoFCou: FMM=F IPFlag=           0 FMFlag=      100000 FMFlg1=           0
         NFxFlg=           0 DoJE=T BraDBF=F KetDBF=T FulRan=T
         wScrn=  0.000000 ICntrl=       500 IOpCl=  0 I1Cent=   200000004 NGrid=           0
         NMat0=    1 NMatS0=      1 NMatT0=    0 NMatD0=    1 NMtDS0=    0 NMtDT0=    0
 Petite list used in FoFCou.
 Keep J ints in memory in canonical form, NReq=14405706.
 Requested convergence on RMS density matrix=1.00D-08 within 128 cycles.
 Requested convergence on MAX density matrix=1.00D-06.
 Requested convergence on             energy=1.00D-06.
 No special actions if energy rises.
 SCF Done:  E(RPBE-PBE) =  -118.965257259     A.U. after    8 cycles
            NFock=  8  Conv=0.92D-08     -V/T= 2.0113
 Calling FoFJK, ICntrl=      2527 FMM=F ISym2X=0 I1Cent= 0 IOpClX= 0 NMat=1 NMatS=1 NMatT=0.
 ***** Axes restored to original set *****
 -------------------------------------------------------------------
 Center     Atomic                   Forces (Hartrees/Bohr)
 Number     Number              X              Y              Z
 -------------------------------------------------------------------
      1        6           0.000676974   -0.000594970   -0.003326747
      2        6          -0.000305347    0.000232667   -0.001922546
      3        1          -0.000408670    0.000362306    0.002609359
      4        1          -0.000013674    0.000194488    0.000423635
      5        1          -0.000093049   -0.000084517    0.000296686
      6        6           0.000058546   -0.000092340    0.001363583
      7        1           0.000059129   -0.000038043    0.000225764
      8        1          -0.000050850    0.000182055    0.000164005
      9        1          -0.000017899   -0.000011387   -0.000076893
     10        1          -0.000157103   -0.000099949    0.000132265
     11        1           0.000251942   -0.000050309    0.000110888
 -------------------------------------------------------------------
 Cartesian Forces:  Max     0.003326747 RMS     0.000875216

 GradGradGradGradGradGradGradGradGradGradGradGradGradGradGradGradGradGrad
 Berny optimization.
 Using GEDIIS/GDIIS optimizer.
 FormGI is forming the generalized inverse of G from B-inverse, IUseBI=4.
 Internal  Forces:  Max     0.001888151 RMS     0.000474925
 Search for a local minimum.
 Step number   3 out of a maximum of   56 on scan point     2 out of    24
 All quantities printed in internal units (Hartrees-Bohrs-Radians)
 Mixed Optimization -- En-DIIS/RFO-DIIS
 Swapping is turned off.
 Update second derivatives using D2CorX and points    1    2    3
 DE= -2.31D-04 DEPred=-2.17D-04 R= 1.07D+00
 TightC=F SS=  1.41D+00  RLast= 1.61D-01 DXNew= 8.4853D-01 4.8437D-01
 Trust test= 1.07D+00 RLast= 1.61D-01 DXMaxT set to 5.05D-01
 ITU=  1  1  0
     Eigenvalues ---    0.00322   0.01341   0.04133   0.04791   0.05425
     Eigenvalues ---    0.05485   0.05513   0.08401   0.11981   0.15972
     Eigenvalues ---    0.15999   0.16000   0.16000   0.16067   0.16854
     Eigenvalues ---    0.21943   0.29090   0.29239   0.32919   0.32933
     Eigenvalues ---    0.33068   0.33073   0.33109   0.33200   0.33208
     Eigenvalues ---    0.334931000.000001000.000001000.000001000.00000
     Eigenvalues --- 1000.000001000.000001000.000001000.000001000.00000
     Eigenvalues --- 1000.000001000.000001000.000001000.000001000.00000
     Eigenvalues --- 1000.000001000.000001000.000001000.000001000.00000
     Eigenvalues --- 1000.00000
 En-DIIS/RFO-DIIS/Sim-DIIS IScMMF=       -3 using points:     3    2
 RFO step:  Lambda=-6.55484656D-06.
 DidBck=F Rises=F RFO-DIIS coefs:    1.08219   -0.08219
 Iteration  1 RMS(Cart)=  0.00241284 RMS(Int)=  0.00000755
 Iteration  2 RMS(Cart)=  0.00000436 RMS(Int)=  0.00000583
 Iteration  3 RMS(Cart)=  0.00000000 RMS(Int)=  0.00000583
 Iteration  1 RMS(Cart)=  0.00000005 RMS(Int)=  0.00000006
 Variable       Old X    -DE/DX   Delta X   Delta X   Delta X     New X
                                 (Linear)    (Quad)   (Total)
    R1        2.90235  -0.00007   0.00019  -0.00040  -0.00021   2.90214
    R2        2.08661   0.00002  -0.00010   0.00015   0.00005   2.08666
    R3        2.09209  -0.00044  -0.00039  -0.00106  -0.00145   2.09064
    R4        2.08625   0.00031   0.00029   0.00073   0.00102   2.08726
    R5        2.89822   0.00018  -0.00025   0.00090   0.00065   2.89887
    R6        2.09273  -0.00020  -0.00020  -0.00047  -0.00067   2.09206
    R7        2.09046   0.00024   0.00012   0.00065   0.00078   2.09124
    R8        2.08709  -0.00002   0.00000  -0.00008  -0.00007   2.08702
    R9        2.08914   0.00016  -0.00019   0.00068   0.00049   2.08963
   R10        2.08893  -0.00006   0.00015  -0.00034  -0.00019   2.08874
    A1        1.94984   0.00015   0.00000   0.00117   0.00115   1.95099
    A2        1.92747   0.00045   0.00050   0.00097   0.00146   1.92893
    A3        1.95118  -0.00044  -0.00043  -0.00111  -0.00155   1.94963
    A4        1.86116   0.00068   0.00220  -0.00015   0.00204   1.86320
    A5        1.89614  -0.00077  -0.00212  -0.00032  -0.00245   1.89369
    A6        1.87425  -0.00004  -0.00003  -0.00058  -0.00061   1.87364
    A7        1.96947  -0.00013   0.00018  -0.00068  -0.00051   1.96896
    A8        1.90505   0.00010   0.00108   0.00013   0.00119   1.90624
    A9        1.91655   0.00001  -0.00053   0.00006  -0.00048   1.91607
   A10        1.89866   0.00067   0.00102  -0.00030   0.00070   1.89936
   A11        1.91924  -0.00056  -0.00161   0.00152  -0.00009   1.91914
   A12        1.85095  -0.00007  -0.00007  -0.00074  -0.00080   1.85015
   A13        1.94976  -0.00002   0.00000  -0.00014  -0.00014   1.94962
   A14        1.94393  -0.00028  -0.00114  -0.00100  -0.00213   1.94179
   A15        1.93158   0.00043   0.00101   0.00208   0.00309   1.93467
   A16        1.87808   0.00013   0.00006   0.00049   0.00054   1.87863
   A17        1.88196  -0.00019   0.00003  -0.00092  -0.00089   1.88106
   A18        1.87544  -0.00008   0.00006  -0.00058  -0.00052   1.87492
    D1       -2.87979  -0.00189  -0.00000   0.00000  -0.00000  -2.87980
    D2       -0.76661  -0.00106   0.00213  -0.00075   0.00139  -0.76523
    D3        1.25558  -0.00108   0.00237  -0.00153   0.00083   1.25641
    D4       -0.81144  -0.00064   0.00306   0.00119   0.00426  -0.80718
    D5        1.30174   0.00019   0.00520   0.00044   0.00565   1.30739
    D6       -2.95926   0.00016   0.00543  -0.00034   0.00509  -2.95416
    D7        1.27423  -0.00068   0.00308   0.00037   0.00345   1.27768
    D8       -2.89578   0.00015   0.00521  -0.00037   0.00484  -2.89094
    D9       -0.87359   0.00013   0.00545  -0.00116   0.00429  -0.86930
   D10       -3.13234   0.00037   0.00267   0.00073   0.00340  -3.12894
   D11       -1.03156   0.00033   0.00195   0.00057   0.00253  -1.02903
   D12        1.05361   0.00033   0.00196   0.00057   0.00252   1.05613
   D13        1.03404  -0.00014   0.00051   0.00123   0.00173   1.03577
   D14        3.13482  -0.00018  -0.00021   0.00107   0.00086   3.13568
   D15       -1.06320  -0.00018  -0.00020   0.00107   0.00086  -1.06235
   D16       -0.98601  -0.00013   0.00090   0.00144   0.00235  -0.98367
   D17        1.11477  -0.00017   0.00018   0.00129   0.00147   1.11624
   D18       -3.08326  -0.00017   0.00018   0.00128   0.00147  -3.08179
         Item               Value     Threshold  Converged?
 Maximum Force            0.000440     0.000450     YES
 RMS     Force            0.000143     0.000300     YES
 Maximum Displacement     0.007086     0.001800     NO 
 RMS     Displacement     0.002413     0.001200     NO 
 Predicted change in Energy=-3.288300D-06
 GradGradGradGradGradGradGradGradGradGradGradGradGradGradGradGradGradGrad

                          Input orientation:                          
 ---------------------------------------------------------------------
 Center     Atomic      Atomic             Coordinates (Angstroms)
 Number     Number       Type             X           Y           Z
 ---------------------------------------------------------------------
      1          6           0       -1.278796   -0.261246    0.020123
      2          6           0        0.000398    0.588380    0.037793
      3          1           0       -2.173403    0.349443   -0.194408
      4          1           0       -1.221502   -1.032004   -0.771456
      5          1           0       -1.434237   -0.785556    0.979773
      6          6           0        1.277690   -0.258122   -0.034081
      7          1           0       -0.014098    1.286801   -0.821044
      8          1           0        0.017203    1.221210    0.945473
      9          1           0        2.185846    0.369758   -0.007224
     10          1           0        1.336165   -0.968192    0.811581
     11          1           0        1.304761   -0.850973   -0.966560
 ---------------------------------------------------------------------
                    Distance matrix (angstroms):
                    1          2          3          4          5
     1  C    0.000000
     2  C    1.535746   0.000000
     3  H    1.104213   2.199186   0.000000
     4  H    1.106321   2.184850   1.774118   0.000000
     5  H    1.104532   2.198455   1.792565   1.781234   0.000000
     6  C    2.557063   1.534016   3.507832   2.718194   2.942896
     7  H    2.168750   1.107070   2.435962   2.614793   3.091020
     8  H    2.175675   1.106634   2.618790   3.091797   2.476886
     9  H    3.521741   2.196817   4.363313   3.762846   3.926056
[...]
           D11        -60.69240 -59.72695 -58.88774 -58.59083 -58.89850
           D12         58.77711  59.73755  60.56425  60.86591  60.55981
           D13         56.30207  57.95316  59.30084  59.68528  58.94524
           D14        176.51508 178.21990 179.64977-179.93181 179.29635
           D15        -64.01541 -62.31560 -60.89824 -60.47507 -61.24534
           D16        -59.38988 -57.91006 -56.40884 -55.64517 -55.99470
           D17         60.82312  62.35668  63.94009  64.73774  64.35641
           D18       -179.70736-178.17882-176.60792-175.80552-176.18528
                          21        22        23        24
     Eigenvalues --    -0.96112  -0.96189  -0.96363  -0.96526
           R1           1.54932   1.54644   1.54062   1.53566
           R2           1.10358   1.10362   1.10391   1.10423
           R3           1.10355   1.10331   1.10375   1.10461
           R4           1.10516   1.10598   1.10646   1.10629
           R5           1.53477   1.53459   1.53429   1.53396
           R6           1.10570   1.10570   1.10610   1.10661
           R7           1.10573   1.10626   1.10682   1.10710
           R8           1.10467   1.10462   1.10451   1.10441
           R9           1.10549   1.10523   1.10515   1.10529
           R10          1.10550   1.10578   1.10592   1.10582
           A1         112.13672 112.13663 111.99884 111.80142
           A2         112.11868 112.37374 112.21010 111.70553
           A3         111.16101 110.65340 110.37042 110.52414
           A4         107.18263 108.21551 108.73714 108.50128
           A5         106.95467 106.14667 106.07780 106.73804
           A6         106.97659 106.98812 107.14826 107.34154
           A7         113.12003 113.09116 112.94466 112.79934
           A8         109.96099 110.10405 110.03948 109.78221
           A9         109.97515 109.63955 109.32214 109.24687
           A10        108.95860 109.67700 110.07405 109.95881
           A11        108.92409 108.38974 108.37359 108.81762
           A12        105.62021 105.65675 105.82172 106.00114
           A13        111.72654 111.71710 111.71956 111.71625
           A14        111.00673 110.79466 110.73367 110.84544
           A15        111.01863 111.24857 111.33172 111.24822
           A16        107.72010 107.78212 107.80647 107.77334
           A17        107.71896 107.66035 107.62701 107.64448
           A18        107.46195 107.44955 107.43234 107.42154
           D1         120.00003 135.00005 150.00010 165.00003
           D2        -117.93349-101.91707 -86.55358 -71.99690
           D3          -2.03224  13.91638  29.25911  43.84365
           D4        -119.36251-102.83261 -87.37271 -73.19183
           D5           2.70397  20.25028  36.07361  49.81124
           D6         118.60521 136.08373 151.88630 165.65179
           D7           0.32662  16.69354  32.05501  46.25249
           D8         122.39310 139.77643 155.50134 169.25556
           D9        -121.70566-104.39012 -88.68597 -74.90390
           D10        179.93642 179.19129 178.86829 179.21908
           D11        -59.79949 -60.61719 -60.94921 -60.56646
           D12         59.66563  58.84350  58.50399  58.89235
           D13         57.31068  55.87229  55.44108  56.31446
           D14        177.57477 176.06382 175.62358 176.52892
           D15        -62.96011 -64.47550 -64.92322 -64.01227
           D16        -57.44475 -59.02042 -59.85204 -59.38079
           D17         62.81934  61.17110  60.33045  60.83367
           D18       -177.71554-179.36821 179.78366-179.70752
 GradGradGradGradGradGradGradGradGradGradGradGradGradGradGradGradGradGrad

                          Input orientation:                          
 ---------------------------------------------------------------------
 Center     Atomic      Atomic             Coordinates (Angstroms)
 Number     Number       Type             X           Y           Z
 ---------------------------------------------------------------------
      1          6           0       -1.234256   -0.394161    0.181678
      2          6           0        0.152893    0.131194    0.579252
      3          1           0       -1.822399   -0.706556    1.062484
      4          1           0       -1.813546    0.363234   -0.375942
      5          1           0       -1.140173   -1.283036   -0.470179
      6          6           0        1.116307    0.225448   -0.610700
      7          1           0        0.053680    1.120898    1.064254
      8          1           0        0.592380   -0.539884    1.342254
      9          1           0        2.103102    0.617877   -0.307463
     10          1           0        1.274467   -0.768126   -1.068370
     11          1           0        0.717572    0.892614   -1.397297
 ---------------------------------------------------------------------
                    Distance matrix (angstroms):
                    1          2          3          4          5
     1  C    0.000000
     2  C    1.535659   0.000000
     3  H    1.104229   2.199345   0.000000
     4  H    1.104610   2.198436   1.792651   0.000000
     5  H    1.106285   2.184805   1.773927   1.781156   0.000000
     6  C    2.556742   1.533961   3.507730   2.942472   2.717899
     7  H    2.175574   1.106609   2.619019   2.476843   3.091710
     8  H    2.169048   1.107099   2.436638   3.091327   2.615135
     9  H    3.521567   2.196915   4.363534   3.925515   3.762815
    10  H    2.827749   2.186632   3.759642   3.360842   2.540365
    11  H    2.821097   2.192115   3.880634   2.780283   3.007360
                    6          7          8          9         10
     6  C    0.000000
     7  H    2.176346   0.000000
     8  H    2.162005   1.767959   0.000000
     9  H    1.104408   2.516897   2.518781   0.000000
    10  H    1.105290   3.099487   2.515640   1.785110   0.000000
    11  H    1.105819   2.559707   3.094005   1.784072   1.782241
                   11
    11  H    0.000000
 Stoichiometry    C3H8
 Framework group  C1[X(C3H8)]
 Deg. of freedom    27
 Full point group                 C1      NOp   1
 Largest Abelian subgroup         C1      NOp   1
 Largest concise Abelian subgroup C1      NOp   1
                         Standard orientation:                         
 ---------------------------------------------------------------------
 Center     Atomic      Atomic             Coordinates (Angstroms)
 Number     Number       Type             X           Y           Z
 ---------------------------------------------------------------------
      1          6           0        1.279123   -0.258779    0.003282
      2          6           0       -0.001154    0.589241    0.003583
      3          1           0        2.168261    0.341026   -0.259375
      4          1           0        1.454467   -0.734193    0.984811
      5          1           0        1.207904   -1.068411   -0.747245
      6          6           0       -1.277615   -0.261446   -0.000265
      7          1           0       -0.001399    1.266783    0.878523
      8          1           0       -0.005544    1.243795   -0.889282
      9          1           0       -2.186632    0.365611    0.013993
     10          1           0       -1.322158   -0.899759   -0.901508
     11          1           0       -1.317023   -0.928947    0.880487
 ---------------------------------------------------------------------
 Rotational constants (GHZ):          29.0818903           8.3293483           7.3794165

 **********************************************************************

            Population analysis using the SCF density.

 **********************************************************************

 Orbital symmetries:
       Occupied  (A) (A) (A) (A) (A) (A) (A) (A) (A) (A) (A) (A)
                 (A)
       Virtual   (A) (A) (A) (A) (A) (A) (A) (A) (A) (A) (A) (A)
                 (A) (A) (A) (A) (A) (A) (A) (A) (A) (A) (A) (A)
                 (A) (A) (A) (A) (A) (A) (A) (A) (A) (A) (A) (A)
                 (A) (A) (A) (A) (A) (A) (A) (A) (A) (A) (A) (A)
                 (A) (A) (A) (A) (A) (A) (A) (A) (A) (A) (A) (A)
 The electronic state is 1-A.
 Alpha  occ. eigenvalues --   -9.89875  -9.88957  -9.88950  -0.70459  -0.61103
 Alpha  occ. eigenvalues --   -0.52201  -0.40493  -0.38655  -0.35021  -0.33384
 Alpha  occ. eigenvalues --   -0.29475  -0.29330  -0.28288
 Alpha virt. eigenvalues --    0.00265   0.02047   0.02447   0.03309   0.05791
 Alpha virt. eigenvalues --    0.06739   0.07357   0.07468   0.08299   0.10304
 Alpha virt. eigenvalues --    0.11046   0.13767   0.16493   0.16944   0.17526
 Alpha virt. eigenvalues --    0.20511   0.22254   0.23370   0.24869   0.28204
 Alpha virt. eigenvalues --    0.30427   0.31678   0.57395   0.59876   0.61257
 Alpha virt. eigenvalues --    0.62628   0.64740   0.65513   0.68183   0.69421
 Alpha virt. eigenvalues --    0.78459   0.88291   0.89719   0.91744   0.93758
 Alpha virt. eigenvalues --    0.96106   1.00244   1.05343   1.06511   1.07182
 Alpha virt. eigenvalues --    1.33793   1.39812   1.42009   1.52979   1.68168
 Alpha virt. eigenvalues --    1.82604   1.85732   1.91532   1.97508   2.03127
 Alpha virt. eigenvalues --    2.16191   2.17075   2.26991   2.30901   2.33823
 Alpha virt. eigenvalues --    2.51961   2.61564   4.08223   4.21183   4.39419
          Condensed to atoms (all electrons):
               1          2          3          4          5          6
     1  C    5.612643   0.095789   0.392137   0.395984   0.401940  -0.101292
     2  C    0.095789   5.645109  -0.064621  -0.043130  -0.064037   0.111923
     3  H    0.392137  -0.064621   0.501735  -0.025896  -0.028991   0.017557
     4  H    0.395984  -0.043130  -0.025896   0.497539  -0.030860  -0.012116
     5  H    0.401940  -0.064037  -0.028991  -0.030860   0.509404  -0.004816
     6  C   -0.101292   0.111923   0.017557  -0.012116  -0.004816   5.600691
     7  H   -0.048511   0.402860  -0.001128  -0.006520   0.004505  -0.049902
     8  H   -0.056997   0.417326  -0.004625   0.004334  -0.002872  -0.055632
     9  H    0.018952  -0.066396  -0.000130  -0.000075   0.000092   0.391510
    10  H   -0.011782  -0.053432   0.000000  -0.000248   0.004177   0.401035
    11  H   -0.007301  -0.052846   0.000001   0.002600  -0.000671   0.396681
               7          8          9         10         11
     1  C   -0.048511  -0.056997   0.018952  -0.011782  -0.007301
     2  C    0.402860   0.417326  -0.066396  -0.053432  -0.052846
     3  H   -0.001128  -0.004625  -0.000130   0.000000   0.000001
     4  H   -0.006520   0.004334  -0.000075  -0.000248   0.002600
     5  H    0.004505  -0.002872   0.000092   0.004177  -0.000671
     6  C   -0.049902  -0.055632   0.391510   0.401035   0.396681
     7  H    0.522749  -0.034999  -0.002711   0.004461  -0.004620
     8  H   -0.034999   0.524301  -0.002930  -0.005190   0.004593
     9  H   -0.002711  -0.002930   0.502488  -0.026902  -0.027471
    10  H    0.004461  -0.005190  -0.026902   0.503898  -0.031353
    11  H   -0.004620   0.004593  -0.027471  -0.031353   0.504537
 Mulliken charges:
               1
     1  C   -0.691562
     2  C   -0.328547
     3  H    0.213960
     4  H    0.218389
     5  H    0.212131
     6  C   -0.695638
     7  H    0.213817
     8  H    0.212691
     9  H    0.213571
    10  H    0.215337
    11  H    0.215850
 Sum of Mulliken charges =  -0.00000
 Mulliken charges with hydrogens summed into heavy atoms:
               1
     1  C   -0.047081
     2  C    0.097961
     6  C   -0.050880
 Electronic spatial extent (au):  <R**2>=            230.0528
 Charge=             -0.0000 electrons
 Dipole moment (field-independent basis, Debye):
    X=              0.0022    Y=              0.0885    Z=             -0.0120  Tot=              0.0894
 Quadrupole moment (field-independent basis, Debye-Ang):
   XX=            -22.6308   YY=            -22.2764   ZZ=            -21.7340
   XY=             -0.0141   XZ=             -0.0299   YZ=             -0.0160
 Traceless Quadrupole moment (field-independent basis, Debye-Ang):
   XX=             -0.4171   YY=             -0.0626   ZZ=              0.4797
   XY=             -0.0141   XZ=             -0.0299   YZ=             -0.0160
 Octapole moment (field-independent basis, Debye-Ang**2):
  XXX=             -0.0364  YYY=              0.3971  ZZZ=              0.3172  XYY=             -0.0584
  XXY=              1.5341  XXZ=             -0.1894  XZZ=              0.1170  YZZ=             -0.3880
  YYZ=             -0.1769  XYZ=             -0.2236
 Hexadecapole moment (field-independent basis, Debye-Ang**3):
 XXXX=           -213.6609 YYYY=            -76.4776 ZZZZ=            -47.0496 XXXY=             -0.2648
 XXXZ=             -0.8561 YYYX=             -0.0412 YYYZ=              0.3913 ZZZX=              0.6561
 ZZZY=             -0.2072 XXYY=            -47.9944 XXZZ=            -44.0499 YYZZ=            -18.5169
 XXYZ=             -0.5990 YYXZ=             -0.2495 ZZXY=              0.1445
 N-N= 8.192737836481D+01 E-N=-4.381021759861D+02  KE= 1.176384984708D+02
 There are a total of      250426 grid points.
 ElSum from          density=       25.9999999160
 ElSum from atomic densities=       25.9999987808

 Hirshfeld populations at iteration   1 (CX, CA, CB, DipXYZ):
               1          2          3          4          5          6
     1  C    0.000000   3.047392   3.047392  -0.016527   0.016071   0.001797
     2  C    0.000000   3.026788   3.026788   0.000908  -0.019844   0.002225
     3  H    0.000002   0.484211   0.484211   0.104111   0.077120  -0.034951
     4  H    0.000002   0.484596   0.484596   0.017759  -0.053668   0.120943
     5  H    0.000002   0.485252   0.485252  -0.009605  -0.092152  -0.091184
     6  C    0.000000   3.047360   3.047360   0.015801   0.015092   0.000318
     7  H    0.000001   0.484943   0.484943  -0.000033   0.076122   0.106173
     8  H    0.000001   0.485295   0.485295  -0.000320   0.073006  -0.107783
     9  H    0.000002   0.484249   0.484249  -0.106708   0.080822   0.001739
    10  H    0.000001   0.484875   0.484875  -0.002993  -0.072301  -0.110365
    11  H    0.000002   0.485039   0.485039  -0.002000  -0.076010   0.107391
       Tot   0.000013  13.000000  13.000000   0.000392   0.024259  -0.003698

 Dip from Atomic Chgs              0.000482   0.010568  -0.001042
         Total Dipole              0.000874   0.034827  -0.004740

 Hirshfeld charges, spin densities, dipoles, and CM5 charges using IRadAn=      5:
              Q-H        S-H        Dx         Dy         Dz        Q-CM5   
     1  C   -0.094783   0.000000  -0.016527   0.016071   0.001797  -0.240870
     2  C   -0.053575   0.000000   0.000908  -0.019844   0.002225  -0.163943
     3  H    0.031578   0.000000   0.104111   0.077120  -0.034951   0.080894
     4  H    0.030807   0.000000   0.017759  -0.053668   0.120943   0.080454
     5  H    0.029497   0.000000  -0.009605  -0.092152  -0.091184   0.079421
     6  C   -0.094721   0.000000   0.015801   0.015092   0.000318  -0.240850
     7  H    0.030114   0.000000  -0.000033   0.076122   0.106173   0.082475
     8  H    0.029410   0.000000  -0.000320   0.073006  -0.107783   0.081886
     9  H    0.031503   0.000000  -0.106708   0.080822   0.001739   0.080812
    10  H    0.030249   0.000000  -0.002993  -0.072301  -0.110365   0.080070
    11  H    0.029922   0.000000  -0.002000  -0.076010   0.107391   0.079651
       Tot   0.000000   0.000000   0.000392   0.024259  -0.003698   0.000000
 Hirshfeld charges with hydrogens summed into heavy atoms:
              Q-H       Q-CM5   
     1  C   -0.002901  -0.000100
     2  C    0.005948   0.000417
     6  C   -0.003047  -0.000317
 
 EQQ= 0.000000000000E+00 EQD= 0.000000000000E+00 EDD=-0.171708307969E-02
 EQQ+QD+DD=-0.171708307969E-02
 
 Merz-Kollman atomic radii used.

 **********************************************************************

            Electrostatic Properties Using The SCF Density

 **********************************************************************

       Atomic Center    1 is at   1.279123 -0.258779  0.003282
       Atomic Center    2 is at  -0.001154  0.589241  0.003583
       Atomic Center    3 is at   2.168261  0.341026 -0.259375
       Atomic Center    4 is at   1.454467 -0.734193  0.984811
       Atomic Center    5 is at   1.207904 -1.068411 -0.747245
       Atomic Center    6 is at  -1.277615 -0.261446 -0.000265
       Atomic Center    7 is at  -0.001399  1.266783  0.878523
       Atomic Center    8 is at  -0.005544  1.243795 -0.889282
       Atomic Center    9 is at  -2.186632  0.365611  0.013993
       Atomic Center   10 is at  -1.322158 -0.899759 -0.901508
       Atomic Center   11 is at  -1.317023 -0.928947  0.880487
     578 points will be used for fitting atomic charges
 Fitting point charges to electrostatic potential
 Charges from ESP fit, RMS=   0.00157 RRMS=   0.76431:
 ESP charges:
               1
     1  C   -0.326574
     2  C    0.310485
     3  H    0.065171
     4  H    0.075722
     5  H    0.074041
     6  C   -0.290637
     7  H   -0.048639
     8  H   -0.046403
     9  H    0.053911
    10  H    0.067640
    11  H    0.065282
 Sum of ESP charges =  -0.00000
 ESP charges with hydrogens summed into heavy atoms:
               1
     1  C   -0.111640
     2  C    0.215443
     6  C   -0.103803
 Charge=  -0.00000 Dipole=     0.0055     0.0473    -0.0084 Tot=     0.0484
 -----------------------------------------------------------------

              Electrostatic Properties (Atomic Units)

 -----------------------------------------------------------------
    Center     Electric         -------- Electric Field --------
               Potential          X             Y             Z
 -----------------------------------------------------------------
    1 Atom    -14.740405
    2 Atom    -14.729975
    3 Atom     -1.119549
    4 Atom     -1.119915
    5 Atom     -1.120463
    6 Atom    -14.740378
    7 Atom     -1.124835
    8 Atom     -1.125925
    9 Atom     -1.119593
   10 Atom     -1.120114
   11 Atom     -1.120456
 -----------------------------------------------------------------
 1\1\GINC-DIDO\Scan\RPBEPBE\6-31+G(d)\C3H8\GRTE2001\04-Nov-2021\0\\#Opt
 =Modredundant PBEPBE EmpiricalDispersion=GD3BJ 6-31+G(D) pop=(CM5, ESP
 )\\CC_H8C3_d91b46644317dee9c2b868166c66a18c~1\\0,1\C,-1.2342562518,-0.
 394161261,0.1816779053\C,0.1528934494,0.1311943233,0.5792516786\H,-1.8
 223988477,-0.7065560939,1.0624843317\H,-1.8135464105,0.3632340196,-0.3
 759417037\H,-1.1401734911,-1.2830356172,-0.4701792254\C,1.1163073966,0
 .2254478032,-0.6107001253\H,0.0536795766,1.1208980545,1.0642541453\H,0
 .5923795316,-0.5398843379,1.3422544044\H,2.1031017775,0.6178765422,-0.
 3074625678\H,1.2744670318,-0.7681261868,-1.0683698463\H,0.7175722376,0
 .892613754,-1.3972969969\\Version=ES64L-G16RevA.03\State=1-A\HF=-118.9
 65912,-118.9652606,-118.9636263,-118.9618925,-118.9611238,-118.9618386
 ,-118.9635621,-118.9652261,-118.9659119,-118.9652705,-118.9636241,-118
 .9618785,-118.9611235,-118.9618784,-118.9636246,-118.9652708,-118.9659
 119,-118.9652261,-118.9635621,-118.9618387,-118.9611238,-118.9618925,-
 118.9636264,-118.9652607\RMSD=2.726e-09,4.315e-09,7.273e-09,9.435e-09,
 3.665e-09,6.530e-09,5.827e-09,3.146e-09,5.342e-09,6.020e-09,1.165e-09,
 3.080e-09,4.071e-09,6.227e-09,9.086e-09,3.640e-09,7.197e-09,3.305e-09,
 8.770e-09,7.610e-09,7.505e-09,2.620e-09,8.930e-09,6.036e-09\PG=C01 [X(
 C3H8)]\\@


 IT WAS AN ACT OF DESPARATION. FOR SIX YEARS I HAD STRUGGLED WITH THE
 BLACKBODY THEORY. I KNEW THE PROBLEM WAS FUNDAMENTAL, AND I KNEW
 THE ANSWER. I HAD TO FIND A THEORETICAL EXPLANATION AT ANY COST,
 EXCEPT FOR THE INVIOLABLITY OF THE TWO LAWS OF THERMODYNAMICS.
   -- MAX PLANCK, 1931
 Job cpu time:       0 days  0 hours 37 minutes 33.7 seconds.
 Elapsed time:       0 days  0 hours  3 minutes 16.5 seconds.
 File lengths (MBytes):  RWF=     22 Int=      0 D2E=      0 Chk=      4 Scr=      2
 Normal termination of Gaussian 16 at Thu Nov  4 17:55:51 2021.
