11   
Dihedral (-165,) Energy -10.500245247
C       -5.4794123852    1.9116552737   -0.0539906279
C       -3.9541252637    1.9113838959   -0.0344508135
H       -5.8627256229    2.9069978847   -0.2658934803
H       -5.8433538753    1.2455639823   -0.8336957669
H       -5.8807767737    1.5725737912    0.8975677259
C       -3.3879220405    0.4985707541   -0.1071312787
H       -3.5836007818    2.4838049921   -0.8878612862
H       -3.5992440479    2.4046811717    0.8724511218
H       -2.3005371807    0.5186275607   -0.0854727319
H       -3.7372412255   -0.0960585106    0.7345871933
H       -3.7039838028    0.0094452042   -1.0259721557
11   
Dihedral (-150,) Energy -10.498793389
C       -5.4830464041    1.9136846598   -0.0397275653
C       -3.9546016363    1.9076517356    0.0016780311
H       -5.8590527740    2.8459315232   -0.4540485529
H       -5.8407641334    1.1116345436   -0.6833841894
H       -5.9075229605    1.7655543656    0.9493237325
C       -3.3845130983    0.5016124841   -0.1431045697
H       -3.5689328531    2.5213154457   -0.8159515428
H       -3.6068868995    2.3531146576    0.9352795476
H       -2.2975873658    0.5216489075   -0.1016077982
H       -3.7463185129   -0.1422726439    0.6562912328
H       -3.6836963621    0.0673705213   -1.0946105257
11   
Dihedral (-135,) Energy -10.497265649
C       -5.4875427366    1.9136250717   -0.0313800371
C       -3.9555466428    1.9016107864    0.0355048946
H       -5.8494758213    2.7450928131   -0.6306669382
H       -5.8501958458    1.0007042240   -0.5000611288
H       -5.9300934903    1.9781389014    0.9585445539
C       -3.3799878205    0.5067060091   -0.1810406253
H       -3.5509432614    2.5630275146   -0.7338043982
H       -3.6211081848    2.2866003968    1.0000895935
H       -2.2936163845    0.5270402027   -0.1233627608
H       -3.7502591572   -0.1817393054    0.5761446791
H       -3.6641537548    0.1264395856   -1.1598302327
11   
Dihedral (-120,) Energy -10.496598567
C       -5.4903195769    1.9090312395   -0.0272550969
C       -3.9578012782    1.8936817053    0.0676916874
H       -5.8323715116    2.6066167965   -0.7873424425
H       -5.8674381078    0.9230283007   -0.2881078331
H       -5.9423943997    2.1980160216    0.9178880831
C       -3.3752418690    0.5145107530   -0.2201963619
H       -3.5351016418    2.6084499029   -0.6407598025
H       -3.6442670217    2.2064948945    1.0652571893
H       -2.2895453315    0.5353180620   -0.1513696557
H       -3.7498199878   -0.2145823647    0.4953153213
H       -3.6486223738    0.1866808886   -1.2209832885
11   
Dihedral (-105,) Energy -10.497239718
C       -5.4902953691    1.9015537307   -0.0227092613
C       -3.9617403590    1.8838679114    0.1008477070
H       -5.8069819692    2.4382314387   -0.9134837130
H       -5.8868750324    0.8908619482   -0.0663217094
H       -5.9430289830    2.4021052349    0.8304778148
C       -3.3712735318    0.5249309676   -0.2584218226
H       -3.5270314352    2.6500572658   -0.5427612247
H       -3.6741494104    2.1225491616    1.1270920197
H       -2.2860060599    0.5459733294   -0.1832770392
H       -3.7468329952   -0.2421524890    0.4153104845
H       -3.6387079547    0.2492677006   -1.2766154559
11   
Dihedral (-90,) Energy -10.498765240
C       -5.4875555719    1.8936090841   -0.0138808696
C       -3.9657959171    1.8739348062    0.1351535753
H       -5.7779192949    2.2466971678   -1.0006927441
H       -5.9055520444    0.9039040669    0.1478149483
H       -5.9331625193    2.5721386674    0.7113061598
C       -3.3701172395    0.5381662189   -0.2944080484
H       -3.5254493866    2.6820038402   -0.4509103745
H       -3.7018517150    2.0475150034    1.1813082575
H       -2.2858564598    0.5553568009   -0.2075447565
H       -3.7519397337   -0.2657879925    0.3309249084
H       -3.6277233179    0.3197084366   -1.3289332563
11   
Dihedral (-75,) Energy -10.500230768
C       -5.4852560166    1.8890124146   -0.0015492639
C       -3.9699403914    1.8622421710    0.1697950510
H       -5.7509560563    2.0438663175   -1.0449980198
H       -5.9272826706    0.9568562231    0.3410466187
H       -5.9194801456    2.7053267066    0.5726726700
C       -3.3691909209    0.5530652006   -0.3277914925
H       -3.5260694200    2.7015700045   -0.3687486149
H       -3.7242161963    1.9823215267    1.2278729037
H       -2.2864018051    0.5624289346   -0.2240959483
H       -3.7619042455   -0.2857814200    0.2427979238
H       -3.6122252318    0.3963380207   -1.3768640278
11   
Dihedral (-60,) Energy -10.500826914
C       -5.4850361831    1.8862881515    0.0119403571
C       -3.9736416831    1.8493642372    0.2019862532
H       -5.7365841229    1.8343928855   -1.0453763997
H       -5.9529941101    1.0431644941    0.5158359324
H       -5.9019882642    2.8044654764    0.4194989480
C       -3.3671889347    0.5695415914   -0.3599538082
H       -3.5250625153    2.7118380896   -0.2962340708
H       -3.7401021730    1.9237911106    1.2664953210
H       -2.2876974796    0.5640487363   -0.2266137767
H       -3.7801011806   -0.3010841892    0.1454060819
H       -3.5825263536    0.4814354167   -1.4228469381
11   
Dihedral (-45,) Energy -10.500246097
C       -5.4874274887    1.8840829178    0.0235273998
C       -3.9773765309    1.8338345926    0.2321333521
H       -5.7367828862    1.6284215589   -1.0041343444
H       -5.9837960090    1.1619698273    0.6696153106
H       -5.8810237297    2.8716162686    0.2492739731
C       -3.3626155953    0.5868925133   -0.3914717448
H       -3.5211445286    2.7162084992   -0.2236934604
H       -3.7534369333    1.8621245624    1.3002411571
H       -2.2875726736    0.5648016818   -0.2271283753
H       -3.7950190042   -0.3112016560    0.0452808465
H       -3.5467277206    0.5684952341   -1.4635062144
11   
Dihedral (-30,) Energy -10.498786599
C       -5.4922880833    1.8804232877    0.0330372622
C       -3.9816237133    1.8150371688    0.2603418306
H       -5.7527337134    1.4340336852   -0.9239495286
H       -6.0181713070    1.3148806415    0.8006101998
H       -5.8538720602    2.9042282918    0.0604476197
C       -3.3549420746    0.6053679380   -0.4228847171
H       -3.5157384808    2.7174882954   -0.1435696446
H       -3.7679200584    1.7889861854    1.3300360798
H       -2.2844862526    0.5691863509   -0.2328718277
H       -3.7998673352   -0.3162972693   -0.0528170231
H       -3.5112799213    0.6539114246   -1.4982422511
11   
Dihedral (-15,) Energy -10.497255293
C       -5.4981056118    1.8748126229    0.0412769934
C       -3.9868404689    1.7925507174    0.2886396051
H       -5.7801359438    1.2604060890   -0.8103372435
H       -6.0523860946    1.5030930011    0.9005596917
H       -5.8164334642    2.8964098911   -0.1454685165
C       -3.3455391675    0.6257650547   -0.4539649960
H       -3.5104932276    2.7164952337   -0.0468982523
H       -3.7881215510    1.6967584301    1.3571384990
H       -2.2765688556    0.5860807634   -0.2550939627
H       -3.7874976654   -0.3175212133   -0.1389747294
H       -3.4908010496    0.7323954099   -1.5267389888
11   
Dihedral (0,) Energy -10.496598335
C       -5.5019676642    1.8664708386    0.0510433973
C       -3.9927236853    1.7694443919    0.3163758236
H       -5.8145959931    1.1097487718   -0.6644002167
H       -6.0739326377    1.7178000334    0.9632005121
H       -5.7699092763    2.8383990157   -0.3554648399
C       -3.3375209310    0.6496994639   -0.4845951844
H       -3.5094600213    2.7142125001    0.0609363141
H       -3.8129270374    1.5934359930    1.3785749011
H       -2.2691553383    0.6090688491   -0.2824723377
H       -3.7725702941   -0.3123049118   -0.2216957120
H       -3.4781603212    0.8112710544   -1.5513645575
11   
Dihedral (15,) Energy -10.497255293
C       -5.4981094071    1.8748371581   -0.1847442135
C       -3.9868501508    1.7926379697   -0.4321636636
H       -5.7801174779    1.2602255573    0.6667294066
H       -5.8164349355    2.8963888545    0.0022543766
H       -6.0524101644    1.5033226187   -1.0441025251
C       -3.3455280479    0.6256754618    0.3101450387
H       -3.7881572454    1.6971026552   -1.5006904007
H       -3.5104967031    2.7165029495   -0.0964156843
H       -2.2765625386    0.5860412423    0.1112381983
H       -3.4907637928    0.7320479573    1.3829481674
H       -3.7874922366   -0.3175361244   -0.0050608003
11   
Dihedral (30,) Energy -10.498786599
C       -5.4922917034    1.8804458226   -0.1765032945
C       -3.9816327578    1.8151176751   -0.4038605646
H       -5.7527129070    1.4338258205    0.7803826301
H       -5.8538787204    2.9042565415   -0.2036589815
H       -6.0181923956    1.3150862637   -0.9441991428
C       -3.3549316545    0.6052858068    0.2790601032
H       -3.7679552383    1.7893240761   -1.4735662780
H       -3.5157396108    2.7174728130    0.0002562093
H       -2.2844804832    0.5691519408    0.0890119369
H       -3.5112428910    0.6535709682    1.3544331451
H       -3.7998643380   -0.3162914284   -0.0912176632
11   
Dihedral (45,) Energy -10.500246097
C       -5.4874308615    1.8841031475   -0.1669926979
C       -3.9773848983    1.8339083541   -0.3756476992
H       -5.7367605308    1.6281944265    0.8606137169
H       -5.8810348943    2.8716897841   -0.3924924584
H       -5.9838135235    1.1621440978   -0.8132418639
C       -3.3626059370    0.5868179117    0.2476428778
H       -3.7534714646    1.8624553696   -1.4437541555
H       -3.5211437200    2.7161737759    0.0803798706
H       -2.2875670789    0.5647686096    0.0832673606
H       -3.5466912523    0.5681630926    1.3196774987
H       -3.7950185388   -0.3111722694   -0.1893143496
11   
Dihedral (60,) Energy -10.500826914
C       -5.4850392900    1.8863056512   -0.1554051510
C       -3.9736493763    1.8494307098   -0.3454970218
H       -5.7365611553    1.8341559768    0.9019052896
H       -5.9020034119    2.8045798712   -0.5627330493
H       -5.9530077215    1.0433019538   -0.6594916451
C       -3.3671800063    0.5694745182    0.2161208553
H       -3.7401361652    1.9241136868   -1.4099939195
H       -3.5250598804    2.7117859049    0.1529193615
H       -2.2876918264    0.5640160194    0.0827529104
H       -3.5824910440    0.4811127283    1.2789981072
H       -3.7801028227   -0.3010308206   -0.2894378374
11   
Dihedral (75,) Energy -10.500230768
C       -5.4852588096    1.8890266629   -0.1419148626
C       -3.9699473366    1.8623008936   -0.3133028166
H       -5.7509336134    2.0436294485    0.9015775482
H       -5.9194988075    2.7054778615   -0.7159301171
H       -5.9272918444    0.9569517897   -0.4847237148
C       -3.3691827431    0.5530058430    0.1839546470
H       -3.7242493965    1.9826347923   -1.3713578470
H       -3.5260649962    2.7015004010    0.2254314345
H       -2.2863962088    0.5623968564    0.0802346490
H       -3.6121908423    0.3960263016    1.2329955200
H       -3.7619083014   -0.2857046506   -0.3868264405
11   
Dihedral (90,) Energy -10.498765240
C       -5.4875581221    1.8936201714   -0.1295823753
C       -3.9658020026    1.8739852652   -0.2786585871
H       -5.7778978176    2.2464710243    0.8573214844
H       -5.9331847314    2.5723228777   -0.8545953609
H       -5.9055562055    0.9039531729   -0.2915052186
C       -3.3701098573    0.5381147992    0.1505675714
H       -3.7018835921    2.0478177117   -1.3247779539
H       -3.5254432047    2.6819143537    0.3075887844
H       -2.2858511969    0.5553283462    0.0636815151
H       -3.6276897832    0.3194084807    1.1850467914
H       -3.7519463865   -0.2656901031   -0.4749485508
11   
Dihedral (105,) Energy -10.497239718
C       -5.4902976608    1.9015628633   -0.1207516928
C       -3.9617456533    1.8839100691   -0.2443505162
H       -5.8069635165    2.4380260398    0.7701593499
H       -5.9430533699    2.4023181758   -0.9738074413
H       -5.8868740485    0.8908597752   -0.0773721099
C       -3.3712669863    0.5248882286    0.1145782759
H       -3.6741804874    2.1228382684   -1.2705445878
H       -3.5270225721    2.6499458789    0.3994315956
H       -2.2860014027    0.5459510688    0.0394119654
H       -3.6386758547    0.2489799146    1.1327122500
H       -3.7468412477   -0.2420342824   -0.5593289887
11   
Dihedral (120,) Energy -10.496598567
C       -5.4903217521    1.9090392720   -0.1162040006
C       -3.9578057607    1.8937159284   -0.2111923041
H       -5.8323564553    2.6064416532    0.6440591709
H       -5.9424205078    2.1982499179   -1.0612666356
H       -5.8674316999    0.9229729201    0.1444213408
C       -3.3752362585    0.5144771937    0.0763504058
H       -3.6442968343    2.2067690829   -1.2086904827
H       -3.5350901812    2.6083150616    0.4974201907
H       -2.2895414337    0.5353035428    0.0075024634
H       -3.6485918224    0.1864063343    1.0770651761
H       -3.7498299940   -0.2144449069   -0.6393273247
11   
Dihedral (135,) Energy -10.497265648
C       -5.4875448294    1.9136322078   -0.1120778338
C       -3.9555503869    1.9016372176   -0.1790038818
H       -5.8494647258    2.7449554607    0.4874174339
H       -5.9301204483    1.9783825055   -1.1019758671
H       -5.8501843696    1.0005982188    0.3563933308
C       -3.3799831425    0.5066818119    0.0371928337
H       -3.6211368266    2.2868586870   -1.1435046468
H       -3.5509291933    2.5628704190    0.5904537657
H       -2.2936130732    0.5270326141   -0.0205051111
H       -3.6641256071    0.1261792369    1.0158975028
H       -3.7502701974   -0.1815822792   -0.7201495263
11   
Dihedral (150,) Energy -10.498793387
C       -5.4830483495    1.9136899144   -0.1037295988
C       -3.9546046591    1.9076698020   -0.1451761357
H       -5.8590457924    2.8458370018    0.3108239695
H       -5.9075502433    1.7657957594   -1.0928054019
H       -5.8407482293    1.1114851643    0.5397439956
C       -3.3845092490    0.5015973060   -0.0007445010
H       -3.6069150202    2.3533563586   -1.0786803193
H       -3.5689158489    2.5211391205    0.6725897517
H       -2.2975843649    0.5216469089   -0.0422573668
H       -3.6836728674    0.0671244560    0.9506623465
H       -3.7463282760   -0.1420957919   -0.8002888399
11   
Dihedral (165,) Energy -10.500245240
C       -5.4794148704    1.9116574810   -0.0894648387
C       -3.9541277839    1.9113922079   -0.1090483191
H       -5.8627208400    2.9069500328    0.1226848955
H       -5.8808057933    1.5728026980   -1.0410921279
H       -5.8433340295    1.2453818058    0.6900917011
C       -3.3879187741    0.4985637917   -0.0367188880
H       -3.5992739298    2.4049040698   -1.0158438052
H       -3.5835806359    2.4836122586    0.7444859485
H       -2.3005339894    0.5186309420   -0.0583804014
H       -3.7039707081    0.0092111163    0.8820045940
H       -3.7372416456   -0.0958604037   -0.8785808589
11   
Dihedral (180,) Energy -10.500828152
C       -5.4774631933    1.9110263679   -0.0717487543
C       -3.9537129424    1.9128864194   -0.0717633898
H       -5.8636699670    2.9278458012   -0.0716261822
H       -5.8572737528    1.3993228152   -0.9535802219
H       -5.8572398081    1.3992532538    0.8101083310
C       -3.3896139777    0.4973919451   -0.0719348580
H       -3.5921583030    2.4469820506   -0.9533622111
H       -3.5921726268    2.4467439819    0.8100220493
H       -2.3021010198    0.5163486092   -0.0719176412
H       -3.7237918106   -0.0453797660    0.8098094077
H       -3.7237255984   -0.0451754783   -0.9538685295
