DMF                                                                     
Freq      RPBEPBE                                                     6-31+G(d)           
Number of atoms                            I               12
Info1-9                                    I   N=           9
          24          24        1002           0           0         100
           6          18         902
Full Title                                 C   N=           1
DMF         
Route                                      C   N=           7
#Opt Freq PBEPBE EmpiricalDispersion=GD3BJ 6-31+G(D) pop=(CM
5, ESP, NBOREAD)        
Charge                                     I                0
Multiplicity                               I                1
Number of electrons                        I               40
Number of alpha electrons                  I               20
Number of beta electrons                   I               20
Number of basis functions                  I              109
Number of independent functions            I              109
Number of point charges in /Mol/           I                0
Number of translation vectors              I                0
Atomic numbers                             I   N=          12
           8           7           6           6           6           1
           1           1           1           1           1           1
Nuclear charges                            R   N=          12
  8.00000000E+00  7.00000000E+00  6.00000000E+00  6.00000000E+00  6.00000000E+00
  1.00000000E+00  1.00000000E+00  1.00000000E+00  1.00000000E+00  1.00000000E+00
  1.00000000E+00  1.00000000E+00
Current cartesian coordinates              R   N=          36
  3.71603305E+00 -1.77454563E-01 -1.41059358E-04 -6.62271228E-01 -3.67327870E-02
  2.86667157E-04 -8.01786758E-01  2.70787673E+00  2.52370226E-05 -3.02039326E+00
 -1.43815727E+00 -1.14581120E-04  1.63735156E+00 -1.23149602E+00  1.10830540E-04
 -1.81358686E+00  3.39040490E+00  1.69665420E+00 -1.81202698E+00  3.39029522E+00
 -1.69763550E+00  1.13918857E+00  3.45235175E+00  6.66016545E-04 -4.15729507E+00
 -9.88010439E-01  1.69628271E+00 -2.61367945E+00 -3.48128483E+00 -2.55983150E-03
 -4.15847094E+00 -9.84334178E-01 -1.69471360E+00  1.43247567E+00 -3.33199707E+00
  2.98886210E-04
Number of symbols in /Mol/                 I                0
Force Field                                I                0
Atom Types                                 C   N=          12
                                                            
                                                            
                        
Int Atom Types                             I   N=          12
           0           0           0           0           0           0
           0           0           0           0           0           0
MM charges                                 R   N=          12
  0.00000000E+00  0.00000000E+00  0.00000000E+00  0.00000000E+00  0.00000000E+00
  0.00000000E+00  0.00000000E+00  0.00000000E+00  0.00000000E+00  0.00000000E+00
  0.00000000E+00  0.00000000E+00
Integer atomic weights                     I   N=          12
          16          14          12          12          12           1
           1           1           1           1           1           1
Real atomic weights                        R   N=          12
  1.59949146E+01  1.40030740E+01  1.20000000E+01  1.20000000E+01  1.20000000E+01
  1.00782504E+00  1.00782504E+00  1.00782504E+00  1.00782504E+00  1.00782504E+00
  1.00782504E+00  1.00782504E+00
Atom fragment info                         I   N=          12
           0           0           0           0           0           0
           0           0           0           0           0           0
Atom residue num                           I   N=          12
           0           0           0           0           0           0
           0           0           0           0           0           0
Nuclear spins                              I   N=          12
           0           2           0           0           0           1
           1           1           1           1           1           1
Nuclear ZEff                               R   N=          12
 -5.60000000E+00 -4.55000000E+00 -3.60000000E+00 -3.60000000E+00 -3.60000000E+00
 -1.00000000E+00 -1.00000000E+00 -1.00000000E+00 -1.00000000E+00 -1.00000000E+00
 -1.00000000E+00 -1.00000000E+00
Nuclear ZNuc                               R   N=          12
  8.00000000E+00  7.00000000E+00  6.00000000E+00  6.00000000E+00  6.00000000E+00
  1.00000000E+00  1.00000000E+00  1.00000000E+00  1.00000000E+00  1.00000000E+00
  1.00000000E+00  1.00000000E+00
Nuclear QMom                               R   N=          12
  0.00000000E+00  2.04400000E+00  0.00000000E+00  0.00000000E+00  0.00000000E+00
  0.00000000E+00  0.00000000E+00  0.00000000E+00  0.00000000E+00  0.00000000E+00
  0.00000000E+00  0.00000000E+00
Nuclear GFac                               R   N=          12
  0.00000000E+00  4.03761000E-01  0.00000000E+00  0.00000000E+00  0.00000000E+00
  2.79284600E+00  2.79284600E+00  2.79284600E+00  2.79284600E+00  2.79284600E+00
  2.79284600E+00  2.79284600E+00
MicOpt                                     I   N=          12
          -1          -1          -1          -1          -1          -1
          -1          -1          -1          -1          -1          -1
Number of residues                         I                0
Number of secondary structures             I                0
Redundant internal dimensions              I   N=           4
          45          11          18          16
Redundant internal coordinate indices      I   N=         180
           1           5           0           0           2           3
           0           0           2           4           0           0
           2           5           0           0           3           6
           0           0           3           7           0           0
           3           8           0           0           4           9
           0           0           4          10           0           0
           4          11           0           0           5          12
           0           0           3           2           4           0
           3           2           5           0           4           2
           5           0           2           3           6           0
           2           3           7           0           2           3
           8           0           6           3           7           0
           6           3           8           0           7           3
           8           0           2           4           9           0
           2           4          10           0           2           4
          11           0           9           4          10           0
           9           4          11           0          10           4
          11           0           1           5           2           0
           1           5          12           0           2           5
          12           0           4           2           3           6
           4           2           3           7           4           2
           3           8           5           2           3           6
           5           2           3           7           5           2
           3           8           3           2           4           9
           3           2           4          10           3           2
           4          11           5           2           4           9
           5           2           4          10           5           2
           4          11           3           2           5           1
           3           2           5          12           4           2
           5           1           4           2           5          12
Redundant internal coordinates             R   N=          45
  2.33064802E+00  2.74815320E+00  2.74312418E+00  2.59147143E+00  2.09000814E+00
  2.09005557E+00  2.07885273E+00  2.09115797E+00  2.08321683E+00  2.09113415E+00
  2.11046887E+00  2.05622291E+00  2.10074819E+00  2.12621416E+00  1.92905701E+00
  1.92911705E+00  1.88625910E+00  1.89520554E+00  1.91219449E+00  1.91199811E+00
  1.93614260E+00  1.91051600E+00  1.93595686E+00  1.89464183E+00  1.89103195E+00
  1.89457240E+00  2.19314034E+00  2.13731475E+00  1.95273022E+00  1.04906965E+00
 -1.04955330E+00  3.14145293E+00 -2.09287293E+00  2.09168942E+00 -4.89654423E-04
 -1.05256257E+00  3.14021470E+00  1.05000900E+00  2.08938543E+00 -1.02260865E-03
 -2.09122831E+00  6.56687969E-05 -3.14156593E+00  3.14129406E+00 -3.37538367E-04
ZRed-IntVec                                I   N=          45
           0           0           0           0           0           0
           0           0           0           0           0           0
           0           0           0           0           0           0
           0           0           0           0           0           0
           0           0           0           0           0           0
           0           0           0           0           0           0
           0           0           0           0           0           0
           0           0           0
ZRed-FPVec                                 R   N=          45
  0.00000000E+00  0.00000000E+00  0.00000000E+00  0.00000000E+00  0.00000000E+00
  0.00000000E+00  0.00000000E+00  0.00000000E+00  0.00000000E+00  0.00000000E+00
  0.00000000E+00  0.00000000E+00  0.00000000E+00  0.00000000E+00  0.00000000E+00
  0.00000000E+00  0.00000000E+00  0.00000000E+00  0.00000000E+00  0.00000000E+00
  0.00000000E+00  0.00000000E+00  0.00000000E+00  0.00000000E+00  0.00000000E+00
  0.00000000E+00  0.00000000E+00  0.00000000E+00  0.00000000E+00  0.00000000E+00
  0.00000000E+00  0.00000000E+00  0.00000000E+00  0.00000000E+00  0.00000000E+00
  0.00000000E+00  0.00000000E+00  0.00000000E+00  0.00000000E+00  0.00000000E+00
  0.00000000E+00  0.00000000E+00  0.00000000E+00  0.00000000E+00  0.00000000E+00
ZRed-Constraint1                           R   N=          45
  2.33064802E+00  2.74815320E+00  2.74312418E+00  2.59147143E+00  2.09000814E+00
  2.09005557E+00  2.07885273E+00  2.09115797E+00  2.08321683E+00  2.09113415E+00
  2.11046887E+00  2.05622291E+00  2.10074819E+00  2.12621416E+00  1.92905701E+00
  1.92911705E+00  1.88625910E+00  1.89520554E+00  1.91219449E+00  1.91199811E+00
  1.93614260E+00  1.91051600E+00  1.93595686E+00  1.89464183E+00  1.89103195E+00
  1.89457240E+00  2.19314034E+00  2.13731475E+00  1.95273022E+00  1.04906965E+00
 -1.04955330E+00  3.14145293E+00 -2.09287293E+00  2.09168942E+00 -4.89654423E-04
 -1.05256257E+00  3.14021470E+00  1.05000900E+00  2.08938543E+00 -1.02260865E-03
 -2.09122831E+00  6.56687952E-05 -3.14156593E+00  3.14129406E+00 -3.37538367E-04
ZRed-Constraint2                           R   N=          45
  2.29650450E+00  2.74909000E+00  2.73502029E+00  2.55944295E+00  2.06537463E+00
  2.05727589E+00  2.06005367E+00  2.06820935E+00  2.05939003E+00  2.06672478E+00
  2.08878111E+00  2.08400787E+00  2.06845428E+00  2.12910439E+00  1.94177404E+00
  1.90409763E+00  1.92461597E+00  1.90346220E+00  1.88162355E+00  1.90786635E+00
  1.94436304E+00  1.90761716E+00  1.94035778E+00  1.88889813E+00  1.89084789E+00
  1.89026226E+00  2.17563707E+00  2.14001493E+00  1.96753187E+00  1.88976366E+00
 -2.10972692E-01 -2.30649392E+00 -1.19194270E+00  2.99050625E+00  8.94985026E-01
 -1.04665064E+00 -3.13319672E+00  1.06424541E+00  2.03289591E+00 -5.36501797E-02
 -2.13939335E+00 -1.49886857E-02  3.12481605E+00 -3.09506766E+00  4.47370742E-02
SymInf integers                            I   N=          26
           1           1           1           1           1           0
           0           0           0           0           0           0
           0           0           0           0           0           0
           0           0           0           0           0           0
           0           0
RotTr to input orientation                 R   N=          12
  9.97830009E-01  6.15865464E-02  2.32888575E-02 -6.25315299E-02  9.97146334E-01
  4.22965400E-02 -2.06175010E-02 -4.36610448E-02  9.98833636E-01 -1.89158464E-01
  4.58719513E-02  4.57464674E-01
Number of contracted shells                I               39
Number of primitive shells                 I               88
Pure/Cartesian d shells                    I                1
Pure/Cartesian f shells                    I                0
Highest angular momentum                   I                2
Largest degree of contraction              I                6
Shell types                                I   N=          39
           0          -1          -1          -1           2           0
          -1          -1          -1           2           0          -1
          -1          -1           2           0          -1          -1
          -1           2           0          -1          -1          -1
           2           0           0           0           0           0
           0           0           0           0           0           0
           0           0           0
Number of primitives per shell             I   N=          39
           6           3           1           1           1           6
           3           1           1           1           6           3
           1           1           1           6           3           1
           1           1           6           3           1           1
           1           3           1           3           1           3
           1           3           1           3           1           3
           1           3           1
Shell to atom map                          I   N=          39
           1           1           1           1           1           2
           2           2           2           2           3           3
           3           3           3           4           4           4
           4           4           5           5           5           5
           5           6           6           7           7           8
           8           9           9          10          10          11
          11          12          12
Primitive exponents                        R   N=          88
  5.48467166E+03  8.25234946E+02  1.88046958E+02  5.29645000E+01  1.68975704E+01
  5.79963534E+00  1.55396162E+01  3.59993359E+00  1.01376175E+00  2.70005823E-01
  8.45000000E-02  8.00000000E-01  4.17351146E+03  6.27457911E+02  1.42902093E+02
  4.02343293E+01  1.28202129E+01  4.39043701E+00  1.16263619E+01  2.71627981E+00
  7.72218397E-01  2.12031498E-01  6.39000000E-02  8.00000000E-01  3.04752488E+03
  4.57369518E+02  1.03948685E+02  2.92101553E+01  9.28666296E+00  3.16392696E+00
  7.86827235E+00  1.88128854E+00  5.44249258E-01  1.68714478E-01  4.38000000E-02
  8.00000000E-01  3.04752488E+03  4.57369518E+02  1.03948685E+02  2.92101553E+01
  9.28666296E+00  3.16392696E+00  7.86827235E+00  1.88128854E+00  5.44249258E-01
  1.68714478E-01  4.38000000E-02  8.00000000E-01  3.04752488E+03  4.57369518E+02
  1.03948685E+02  2.92101553E+01  9.28666296E+00  3.16392696E+00  7.86827235E+00
  1.88128854E+00  5.44249258E-01  1.68714478E-01  4.38000000E-02  8.00000000E-01
  1.87311370E+01  2.82539436E+00  6.40121692E-01  1.61277759E-01  1.87311370E+01
  2.82539436E+00  6.40121692E-01  1.61277759E-01  1.87311370E+01  2.82539436E+00
  6.40121692E-01  1.61277759E-01  1.87311370E+01  2.82539436E+00  6.40121692E-01
  1.61277759E-01  1.87311370E+01  2.82539436E+00  6.40121692E-01  1.61277759E-01
  1.87311370E+01  2.82539436E+00  6.40121692E-01  1.61277759E-01  1.87311370E+01
  2.82539436E+00  6.40121692E-01  1.61277759E-01
Contraction coefficients                   R   N=          88
  1.83107443E-03  1.39501722E-02  6.84450781E-02  2.32714336E-01  4.70192898E-01
  3.58520853E-01 -1.10777550E-01 -1.48026263E-01  1.13076702E+00  1.00000000E+00
  1.00000000E+00  1.00000000E+00  1.83477216E-03  1.39946270E-02  6.85865518E-02
  2.32240873E-01  4.69069948E-01  3.60455199E-01 -1.14961182E-01 -1.69117479E-01
  1.14585195E+00  1.00000000E+00  1.00000000E+00  1.00000000E+00  1.83473713E-03
  1.40373228E-02  6.88426223E-02  2.32184443E-01  4.67941348E-01  3.62311985E-01
 -1.19332420E-01 -1.60854152E-01  1.14345644E+00  1.00000000E+00  1.00000000E+00
  1.00000000E+00  1.83473713E-03  1.40373228E-02  6.88426223E-02  2.32184443E-01
  4.67941348E-01  3.62311985E-01 -1.19332420E-01 -1.60854152E-01  1.14345644E+00
  1.00000000E+00  1.00000000E+00  1.00000000E+00  1.83473713E-03  1.40373228E-02
  6.88426223E-02  2.32184443E-01  4.67941348E-01  3.62311985E-01 -1.19332420E-01
 -1.60854152E-01  1.14345644E+00  1.00000000E+00  1.00000000E+00  1.00000000E+00
  3.34946043E-02  2.34726953E-01  8.13757326E-01  1.00000000E+00  3.34946043E-02
  2.34726953E-01  8.13757326E-01  1.00000000E+00  3.34946043E-02  2.34726953E-01
  8.13757326E-01  1.00000000E+00  3.34946043E-02  2.34726953E-01  8.13757326E-01
  1.00000000E+00  3.34946043E-02  2.34726953E-01  8.13757326E-01  1.00000000E+00
  3.34946043E-02  2.34726953E-01  8.13757326E-01  1.00000000E+00  3.34946043E-02
  2.34726953E-01  8.13757326E-01  1.00000000E+00
P(S=P) Contraction coefficients            R   N=          88
  0.00000000E+00  0.00000000E+00  0.00000000E+00  0.00000000E+00  0.00000000E+00
  0.00000000E+00  7.08742682E-02  3.39752839E-01  7.27158577E-01  1.00000000E+00
  1.00000000E+00  0.00000000E+00  0.00000000E+00  0.00000000E+00  0.00000000E+00
  0.00000000E+00  0.00000000E+00  0.00000000E+00  6.75797439E-02  3.23907296E-01
  7.40895140E-01  1.00000000E+00  1.00000000E+00  0.00000000E+00  0.00000000E+00
  0.00000000E+00  0.00000000E+00  0.00000000E+00  0.00000000E+00  0.00000000E+00
  6.89990666E-02  3.16423961E-01  7.44308291E-01  1.00000000E+00  1.00000000E+00
  0.00000000E+00  0.00000000E+00  0.00000000E+00  0.00000000E+00  0.00000000E+00
  0.00000000E+00  0.00000000E+00  6.89990666E-02  3.16423961E-01  7.44308291E-01
  1.00000000E+00  1.00000000E+00  0.00000000E+00  0.00000000E+00  0.00000000E+00
  0.00000000E+00  0.00000000E+00  0.00000000E+00  0.00000000E+00  6.89990666E-02
  3.16423961E-01  7.44308291E-01  1.00000000E+00  1.00000000E+00  0.00000000E+00
  0.00000000E+00  0.00000000E+00  0.00000000E+00  0.00000000E+00  0.00000000E+00
  0.00000000E+00  0.00000000E+00  0.00000000E+00  0.00000000E+00  0.00000000E+00
  0.00000000E+00  0.00000000E+00  0.00000000E+00  0.00000000E+00  0.00000000E+00
  0.00000000E+00  0.00000000E+00  0.00000000E+00  0.00000000E+00  0.00000000E+00
  0.00000000E+00  0.00000000E+00  0.00000000E+00  0.00000000E+00  0.00000000E+00
  0.00000000E+00  0.00000000E+00  0.00000000E+00
Coordinates of each shell                  R   N=         117
  3.71603305E+00 -1.77454563E-01 -1.41059358E-04  3.71603305E+00 -1.77454563E-01
 -1.41059358E-04  3.71603305E+00 -1.77454563E-01 -1.41059358E-04  3.71603305E+00
 -1.77454563E-01 -1.41059358E-04  3.71603305E+00 -1.77454563E-01 -1.41059358E-04
 -6.62271228E-01 -3.67327870E-02  2.86667157E-04 -6.62271228E-01 -3.67327870E-02
  2.86667157E-04 -6.62271228E-01 -3.67327870E-02  2.86667157E-04 -6.62271228E-01
 -3.67327870E-02  2.86667157E-04 -6.62271228E-01 -3.67327870E-02  2.86667157E-04
 -8.01786758E-01  2.70787673E+00  2.52370226E-05 -8.01786758E-01  2.70787673E+00
  2.52370226E-05 -8.01786758E-01  2.70787673E+00  2.52370226E-05 -8.01786758E-01
  2.70787673E+00  2.52370226E-05 -8.01786758E-01  2.70787673E+00  2.52370226E-05
 -3.02039326E+00 -1.43815727E+00 -1.14581120E-04 -3.02039326E+00 -1.43815727E+00
 -1.14581120E-04 -3.02039326E+00 -1.43815727E+00 -1.14581120E-04 -3.02039326E+00
 -1.43815727E+00 -1.14581120E-04 -3.02039326E+00 -1.43815727E+00 -1.14581120E-04
  1.63735156E+00 -1.23149602E+00  1.10830540E-04  1.63735156E+00 -1.23149602E+00
  1.10830540E-04  1.63735156E+00 -1.23149602E+00  1.10830540E-04  1.63735156E+00
 -1.23149602E+00  1.10830540E-04  1.63735156E+00 -1.23149602E+00  1.10830540E-04
 -1.81358686E+00  3.39040490E+00  1.69665420E+00 -1.81358686E+00  3.39040490E+00
  1.69665420E+00 -1.81202698E+00  3.39029522E+00 -1.69763550E+00 -1.81202698E+00
  3.39029522E+00 -1.69763550E+00  1.13918857E+00  3.45235175E+00  6.66016545E-04
  1.13918857E+00  3.45235175E+00  6.66016545E-04 -4.15729507E+00 -9.88010439E-01
  1.69628271E+00 -4.15729507E+00 -9.88010439E-01  1.69628271E+00 -2.61367945E+00
 -3.48128483E+00 -2.55983150E-03 -2.61367945E+00 -3.48128483E+00 -2.55983150E-03
 -4.15847094E+00 -9.84334178E-01 -1.69471360E+00 -4.15847094E+00 -9.84334178E-01
 -1.69471360E+00  1.43247567E+00 -3.33199707E+00  2.98886210E-04  1.43247567E+00
 -3.33199707E+00  2.98886210E-04
Num ILSW                                   I              100
ILSW                                       I   N=         100
           0           1           0           0           2           0
           0           0           0           0        1009          -1
           5           0           0           0           2           0
           0           0           1           0           1           0
           1           0           0           0           0           0
           0           0      100000           0          -1           0
           0           0           0           0           0           0
           0           0           0           1           0           0
           0 -2000000000           1           0           0           0
           0           0         141          52           0           0
           0           0           0           0           0           0
           0           0           0           0           0           1
           0           0           0           0           0           0
           0           0           0           0           0           0
           0           0           0           0           0           0
           0           0           0           0           0           0
           0           0           0           0
Num RLSW                                   I               52
RLSW                                       R   N=          52
  1.00000000E+00  1.00000000E+00  1.00000000E+00  1.00000000E+00  0.00000000E+00
  0.00000000E+00  0.00000000E+00  1.00000000E+00  0.00000000E+00  0.00000000E+00
  0.00000000E+00  0.00000000E+00  1.00000000E+00  0.00000000E+00  0.00000000E+00
  0.00000000E+00  0.00000000E+00  1.00000000E+00  0.00000000E+00  0.00000000E+00
  0.00000000E+00  0.00000000E+00  1.00000000E+00  0.00000000E+00  0.00000000E+00
  0.00000000E+00  0.00000000E+00  1.00000000E+00  0.00000000E+00  0.00000000E+00
  0.00000000E+00  0.00000000E+00  1.00000000E+00  0.00000000E+00  0.00000000E+00
  0.00000000E+00  0.00000000E+00  0.00000000E+00  1.00000000E+00  1.00000000E+00
  0.00000000E+00  1.00000000E+00  0.00000000E+00  0.00000000E+00  0.00000000E+00
  0.00000000E+00  0.00000000E+00  0.00000000E+00  0.00000000E+00  0.00000000E+00
  0.00000000E+00  0.00000000E+00
MxBond                                     I                4
NBond                                      I   N=          12
           1           3           4           4           3           1
           1           1           1           1           1           1
IBond                                      I   N=          48
           5           0           0           0           3           4
           5           0           2           6           7           8
           2           9          10          11           1           2
          12           0           3           0           0           0
           3           0           0           0           3           0
           0           0           4           0           0           0
           4           0           0           0           4           0
           0           0           5           0           0           0
RBond                                      R   N=          48
  2.00000000E+00  0.00000000E+00  0.00000000E+00  0.00000000E+00  1.00000000E+00
  1.00000000E+00  1.41000000E+00  0.00000000E+00  1.00000000E+00  1.00000000E+00
  1.00000000E+00  1.00000000E+00  1.00000000E+00  1.00000000E+00  1.00000000E+00
  1.00000000E+00  2.00000000E+00  1.41000000E+00  1.00000000E+00  0.00000000E+00
  1.00000000E+00  0.00000000E+00  0.00000000E+00  0.00000000E+00  1.00000000E+00
  0.00000000E+00  0.00000000E+00  0.00000000E+00  1.00000000E+00  0.00000000E+00
  0.00000000E+00  0.00000000E+00  1.00000000E+00  0.00000000E+00  0.00000000E+00
  0.00000000E+00  1.00000000E+00  0.00000000E+00  0.00000000E+00  0.00000000E+00
  1.00000000E+00  0.00000000E+00  0.00000000E+00  0.00000000E+00  1.00000000E+00
  0.00000000E+00  0.00000000E+00  0.00000000E+00
Virial Ratio                               R      2.009985775294026E+00
SCF Energy                                 R     -2.482257918733078E+02
Total Energy                               R     -2.482257918733078E+02
RMS Force                                  R      1.297901906880007E-05
RMS Density                                R      2.051232480093242E-09
NImag                                      I                0
Job Status                                 I                1
Nuclear derivative order                   I                2
External E-field                           R   N=          35
  0.00000000E+00  0.00000000E+00  0.00000000E+00  0.00000000E+00  0.00000000E+00
  0.00000000E+00  0.00000000E+00  0.00000000E+00  0.00000000E+00  0.00000000E+00
  0.00000000E+00  0.00000000E+00  0.00000000E+00  0.00000000E+00  0.00000000E+00
  0.00000000E+00  0.00000000E+00  0.00000000E+00  0.00000000E+00  0.00000000E+00
  0.00000000E+00  0.00000000E+00  0.00000000E+00  0.00000000E+00  0.00000000E+00
  0.00000000E+00  0.00000000E+00  0.00000000E+00  0.00000000E+00  0.00000000E+00
  0.00000000E+00  0.00000000E+00  0.00000000E+00  0.00000000E+00  0.00000000E+00
IOpCl                                      I                0
IROHF                                      I                0
Alpha Orbital Energies                     R   N=         109
 -1.87513590E+01 -1.40567549E+01 -9.99266001E+00 -9.95119926E+00 -9.93795570E+00
 -9.45421983E-01 -8.66672116E-01 -6.72963961E-01 -6.42998811E-01 -5.18533441E-01
 -4.68822152E-01 -4.34891273E-01 -4.22891905E-01 -3.72680110E-01 -3.70368713E-01
 -3.57827772E-01 -3.47524350E-01 -3.34952636E-01 -2.15878150E-01 -2.14425785E-01
 -2.39850770E-02 -1.56946629E-02  9.92062027E-03  1.85254100E-02  3.03669873E-02
  3.18655855E-02  4.54827652E-02  6.21233276E-02  6.54842189E-02  7.20108307E-02
  9.27564587E-02  1.03224322E-01  1.07860286E-01  1.26475772E-01  1.39135418E-01
  1.59982982E-01  1.64683463E-01  1.84918209E-01  1.93219782E-01  1.98820524E-01
  2.08815942E-01  2.18447221E-01  2.41919023E-01  2.50568193E-01  2.56719258E-01
  2.64253196E-01  2.94057580E-01  3.08376630E-01  3.22004210E-01  3.47744376E-01
  3.71348699E-01  4.23630772E-01  5.99689447E-01  6.04299068E-01  6.19361942E-01
  6.52588280E-01  6.61866515E-01  6.69495033E-01  7.18098004E-01  7.76050242E-01
  8.02372217E-01  8.13400328E-01  8.50209256E-01  8.72858101E-01  8.75277056E-01
  9.34882080E-01  9.41683964E-01  1.00150612E+00  1.03013290E+00  1.06339064E+00
  1.10596800E+00  1.13677161E+00  1.17261005E+00  1.23223776E+00  1.26995932E+00
  1.27253022E+00  1.29035851E+00  1.34021802E+00  1.36397518E+00  1.47947978E+00
  1.48110184E+00  1.62807904E+00  1.70866614E+00  1.71715639E+00  1.81636187E+00
  1.83456902E+00  1.88310093E+00  1.90173659E+00  1.90493608E+00  1.97362803E+00
  2.02513099E+00  2.09165333E+00  2.11742223E+00  2.18330680E+00  2.22931011E+00
  2.28097420E+00  2.33012912E+00  2.35847156E+00  2.47083622E+00  2.56326303E+00
  2.56902896E+00  2.77287257E+00  2.94787654E+00  3.06515315E+00  3.99901894E+00
  4.08651259E+00  4.23837172E+00  4.26925096E+00  4.33175213E+00
Alpha MO coefficients                      R   N=       11881
  9.92302564E-01  2.62462257E-02 -1.13082880E-03 -5.04945715E-04  1.50427563E-07
  1.58758541E-02  4.67931761E-04  2.05463117E-04 -5.47956576E-08 -7.66476730E-03
  3.38459334E-04  5.29698085E-05 -7.29140159E-08 -9.11104237E-03 -9.13344263E-03
 -9.10411474E-03  2.93882074E-05 -1.20897990E-09 -2.40896716E-09 -4.58448313E-06
  3.06640765E-05  8.45525839E-06  1.30924216E-05 -5.00473871E-10  1.81898827E-04
  1.47366491E-04 -2.09653247E-04 -1.68952309E-08  1.01069285E-03  1.31321573E-03
  5.59614711E-04 -9.27232698E-08 -1.04099802E-04  4.77832930E-05 -6.76084262E-06
 -7.78074302E-05  1.64440107E-08  2.52543537E-08  1.10332651E-05  1.74689695E-05
  5.73463221E-05 -9.73303972E-06  2.01476691E-08 -2.42597593E-04 -2.28875491E-04
 -1.09355916E-04 -1.93648335E-07 -2.19508230E-03 -3.85316317E-04  6.68390929E-04
 -1.26986707E-07  3.42514905E-05  1.29028825E-05  4.24818070E-05 -2.68862761E-05
 -1.30270549E-08 -7.02818150E-09  1.01690934E-05  3.28561226E-05  1.50282220E-05
 -1.79743147E-06 -2.88926995E-08 -1.85989988E-04 -1.00517369E-04  1.82018123E-04
  2.70880823E-07  2.39078615E-03  6.77732961E-04  1.25006572E-04  3.08793388E-07
  2.84245237E-06  3.78459766E-05  2.98092683E-05  3.88334845E-05  1.70464540E-08
 -1.08669098E-08 -6.80344275E-06  4.43979800E-04  2.69568761E-04  1.63547975E-04
 -3.30259738E-08 -2.47856737E-04 -2.84478832E-04 -3.62680536E-04  3.99265300E-08
  2.01529732E-03  2.06057868E-03  1.29195812E-03 -2.00519662E-07 -4.04388311E-04
 -1.95176054E-04 -1.74826159E-04 -1.13031221E-04  2.95663712E-08  1.29851649E-08
 -2.78948327E-05  5.86900013E-05 -2.78696906E-05  5.83241524E-05  2.93700764E-05
  3.26567054E-04 -6.58457769E-06  1.20988023E-04  2.13462580E-05  2.28519440E-04
 -6.63295094E-06  1.21303532E-04 -4.62445665E-05  2.61806981E-04  1.15057721E-05
  8.96191279E-05 -1.83817470E-06  7.17924099E-06 -3.28486975E-09 -4.12886696E-04
  2.95486667E-04  2.20228680E-05 -4.84967092E-09 -3.38670261E-05 -7.66286664E-05
 -4.02279227E-05 -1.46824398E-08 -8.97163356E-05  5.51144032E-05  5.46803062E-05