 Entering Gaussian System, Link 0=g16
 Input=DMF_hessian.inp
 Output=DMF_hessian.log
 Initial command:
 /biggin/b120/grte2001/src/g16root/g16/l1.exe "/biggin/b120/grte2001/DMF_gauss/Gau-17750.inp" -scrdir="/biggin/b120/grte2001/DMF_gauss/"
 Entering Link 1 = /biggin/b120/grte2001/src/g16root/g16/l1.exe PID=     17752.
  
 Copyright (c) 1988,1990,1992,1993,1995,1998,2003,2009,2016,
            Gaussian, Inc.  All Rights Reserved.
  
 This is part of the Gaussian(R) 16 program.  It is based on
 the Gaussian(R) 09 system (copyright 2009, Gaussian, Inc.),
 the Gaussian(R) 03 system (copyright 2003, Gaussian, Inc.),
 the Gaussian(R) 98 system (copyright 1998, Gaussian, Inc.),
 the Gaussian(R) 94 system (copyright 1995, Gaussian, Inc.),
 the Gaussian 92(TM) system (copyright 1992, Gaussian, Inc.),
 the Gaussian 90(TM) system (copyright 1990, Gaussian, Inc.),
 the Gaussian 88(TM) system (copyright 1988, Gaussian, Inc.),
 the Gaussian 86(TM) system (copyright 1986, Carnegie Mellon
 University), and the Gaussian 82(TM) system (copyright 1983,
 Carnegie Mellon University). Gaussian is a federally registered
 trademark of Gaussian, Inc.
  
 This software contains proprietary and confidential information,
 including trade secrets, belonging to Gaussian, Inc.
  
 This software is provided under written license and may be
 used, copied, transmitted, or stored only in accord with that
 written license.
  
 The following legend is applicable only to US Government
 contracts under FAR:
  
                    RESTRICTED RIGHTS LEGEND
  
 Use, reproduction and disclosure by the US Government is
 subject to restrictions as set forth in subparagraphs (a)
 and (c) of the Commercial Computer Software - Restricted
 Rights clause in FAR 52.227-19.
  
 Gaussian, Inc.
 340 Quinnipiac St., Bldg. 40, Wallingford CT 06492
  
  
 ---------------------------------------------------------------
 Warning -- This program may not be used in any manner that
 competes with the business of Gaussian, Inc. or will provide
 assistance to any competitor of Gaussian, Inc.  The licensee
 of this program is prohibited from giving any competitor of
 Gaussian, Inc. access to this program.  By using this program,
 the user acknowledges that Gaussian, Inc. is engaged in the
 business of creating and licensing software in the field of
 computational chemistry and represents and warrants to the
 licensee that it is not a competitor of Gaussian, Inc. and that
 it will not use this program in any manner prohibited above.
 ---------------------------------------------------------------
  

 Cite this work as:
 Gaussian 16, Revision A.03,
 M. J. Frisch, G. W. Trucks, H. B. Schlegel, G. E. Scuseria, 
 M. A. Robb, J. R. Cheeseman, G. Scalmani, V. Barone, 
 G. A. Petersson, H. Nakatsuji, X. Li, M. Caricato, A. V. Marenich, 
 J. Bloino, B. G. Janesko, R. Gomperts, B. Mennucci, H. P. Hratchian, 
 J. V. Ortiz, A. F. Izmaylov, J. L. Sonnenberg, D. Williams-Young, 
 F. Ding, F. Lipparini, F. Egidi, J. Goings, B. Peng, A. Petrone, 
 T. Henderson, D. Ranasinghe, V. G. Zakrzewski, J. Gao, N. Rega, 
 G. Zheng, W. Liang, M. Hada, M. Ehara, K. Toyota, R. Fukuda, 
 J. Hasegawa, M. Ishida, T. Nakajima, Y. Honda, O. Kitao, H. Nakai, 
 T. Vreven, K. Throssell, J. A. Montgomery, Jr., J. E. Peralta, 
 F. Ogliaro, M. J. Bearpark, J. J. Heyd, E. N. Brothers, K. N. Kudin, 
 V. N. Staroverov, T. A. Keith, R. Kobayashi, J. Normand, 
 K. Raghavachari, A. P. Rendell, J. C. Burant, S. S. Iyengar, 
 J. Tomasi, M. Cossi, J. M. Millam, M. Klene, C. Adamo, R. Cammi, 
 J. W. Ochterski, R. L. Martin, K. Morokuma, O. Farkas, 
 J. B. Foresman, and D. J. Fox, Gaussian, Inc., Wallingford CT, 2016.
 
 ******************************************
 Gaussian 16:  ES64L-G16RevA.03 25-Dec-2016
                13-Jan-2022 
 ******************************************
 %nprocshared=24
 Will use up to   24 processors via shared memory.
 %mem=30000MB
 %chk=DMF_hessian.chk
 ----------------------------------------------------------------------
 #Opt Freq PBEPBE EmpiricalDispersion=GD3BJ 6-31+G(D) pop=(CM5, ESP, NB
 OREAD)
 ----------------------------------------------------------------------
 1/18=20,19=15,26=3,38=1/1,3;
 2/9=110,12=2,17=6,18=5,40=1/2;
 3/5=1,6=6,7=11,11=2,25=1,30=1,71=1,74=1009,124=41/1,2,3;
 4//1;
 5/5=2,38=5/2;
 6/7=2,8=2,9=2,10=2,15=8,28=1,40=2,79=1/1,2,7;
 7//1,2,3,16;
 1/18=20,19=15,26=3/3(2);
 2/9=110/2;
 99//99;
 2/9=110/2;
 3/5=1,6=6,7=11,11=2,25=1,30=1,71=1,74=1009,124=41/1,2,3;
 4/5=5,16=3,69=1/1;
 5/5=2,38=5/2;
 7//1,2,3,16;
 1/18=20,19=15,26=3/3(-5);
 2/9=110/2;
 6/7=2,8=2,9=2,10=2,15=8,19=2,28=1,40=2,79=1/1,2,7;
 99/9=1/99;
 ---
 DMF
 ---
 Symbolic Z-matrix:
 Charge =  0 Multiplicity = 1
 O                     1.78192   0.06117   0.61789 
 N                    -0.45851  -0.02354   0.22237 
 C                    -0.58901   1.42374   0.29077 
 C                    -1.64158  -0.83557   0.03352 
 C                     0.76579  -0.57185   0.40904 
 H                    -0.42353   1.78888   1.30754 
 H                    -1.59013   1.70664  -0.03005 
 H                     0.14575   1.90033  -0.35836 
 H                    -2.36025  -0.68931   0.84588 
 H                    -1.35728  -1.88745   0.01521 
 H                    -2.1375   -0.5973   -0.91167 
 H                     0.75233  -1.67573   0.35384 
 

 GradGradGradGradGradGradGradGradGradGradGradGradGradGradGradGradGradGrad
 Berny optimization.
 Initialization pass.
                           ----------------------------
                           !    Initial Parameters    !
                           ! (Angstroms and Degrees)  !
 --------------------------                            --------------------------
 ! Name  Definition              Value          Derivative Info.                !
 --------------------------------------------------------------------------------
 ! R1    R(1,5)                  1.2153         estimate D2E/DX2                !
 ! R2    R(2,3)                  1.4548         estimate D2E/DX2                !
 ! R3    R(2,4)                  1.4473         estimate D2E/DX2                !
 ! R4    R(2,5)                  1.3544         estimate D2E/DX2                !
 ! R5    R(3,6)                  1.0929         estimate D2E/DX2                !
 ! R6    R(3,7)                  1.0887         estimate D2E/DX2                !
 ! R7    R(3,8)                  1.0901         estimate D2E/DX2                !
 ! R8    R(4,9)                  1.0944         estimate D2E/DX2                !
 ! R9    R(4,10)                 1.0898         estimate D2E/DX2                !
 ! R10   R(4,11)                 1.0937         estimate D2E/DX2                !
 ! R11   R(5,12)                 1.1053         estimate D2E/DX2                !
 ! A1    A(3,2,4)              119.4049         estimate D2E/DX2                !
 ! A2    A(3,2,5)              118.5137         estimate D2E/DX2                !
 ! A3    A(4,2,5)              121.9887         estimate D2E/DX2                !
 ! A4    A(2,3,6)              111.2555         estimate D2E/DX2                !
 ! A5    A(2,3,7)              109.0968         estimate D2E/DX2                !
 ! A6    A(2,3,8)              110.2724         estimate D2E/DX2                !
 ! A7    A(6,3,7)              109.0604         estimate D2E/DX2                !
 ! A8    A(6,3,8)              107.8091         estimate D2E/DX2                !
 ! A9    A(7,3,8)              109.3127         estimate D2E/DX2                !
 ! A10   A(2,4,9)              111.4038         estimate D2E/DX2                !
 ! A11   A(2,4,10)             109.2984         estimate D2E/DX2                !
 ! A12   A(2,4,11)             111.1743         estimate D2E/DX2                !
 ! A13   A(9,4,10)             108.2259         estimate D2E/DX2                !
 ! A14   A(9,4,11)             108.3376         estimate D2E/DX2                !
 ! A15   A(10,4,11)            108.304          estimate D2E/DX2                !
 ! A16   A(1,5,2)              124.6548         estimate D2E/DX2                !
 ! A17   A(1,5,12)             122.6138         estimate D2E/DX2                !
 ! A18   A(2,5,12)             112.7313         estimate D2E/DX2                !
 ! D1    D(4,2,3,6)            108.2755         estimate D2E/DX2                !
 ! D2    D(4,2,3,7)            -12.0878         estimate D2E/DX2                !
 ! D3    D(4,2,3,8)           -132.1524         estimate D2E/DX2                !
 ! D4    D(5,2,3,6)            -68.2933         estimate D2E/DX2                !
 ! D5    D(5,2,3,7)            171.3434         estimate D2E/DX2                !
 ! D6    D(5,2,3,8)             51.2789         estimate D2E/DX2                !
 ! D7    D(3,2,4,9)            -59.9687         estimate D2E/DX2                !
 ! D8    D(3,2,4,10)          -179.5189         estimate D2E/DX2                !
 ! D9    D(3,2,4,11)            60.9768         estimate D2E/DX2                !
 ! D10   D(5,2,4,9)            116.4764         estimate D2E/DX2                !
 ! D11   D(5,2,4,10)            -3.0739         estimate D2E/DX2                !
 ! D12   D(5,2,4,11)          -122.5782         estimate D2E/DX2                !
 ! D13   D(3,2,5,1)             -0.8588         estimate D2E/DX2                !
 ! D14   D(3,2,5,12)           179.0388         estimate D2E/DX2                !
 ! D15   D(4,2,5,1)           -177.3343         estimate D2E/DX2                !
 ! D16   D(4,2,5,12)             2.5632         estimate D2E/DX2                !
 --------------------------------------------------------------------------------
 Trust Radius=3.00D-01 FncErr=1.00D-07 GrdErr=1.00D-06 EigMax=2.50D+02 EigMin=1.00D-04
 Number of steps in this run=     55 maximum allowed number of steps=    100.
 GradGradGradGradGradGradGradGradGradGradGradGradGradGradGradGradGradGrad

                          Input orientation:                          
 ---------------------------------------------------------------------
 Center     Atomic      Atomic             Coordinates (Angstroms)
 Number     Number       Type             X           Y           Z
 ---------------------------------------------------------------------
      1          8           0        1.781919    0.061167    0.617891
      2          7           0       -0.458507   -0.023540    0.222374
      3          6           0       -0.589011    1.423735    0.290771
      4          6           0       -1.641578   -0.835565    0.033520
      5          6           0        0.765790   -0.571854    0.409042
      6          1           0       -0.423534    1.788876    1.307544
      7          1           0       -1.590125    1.706637   -0.030049
      8          1           0        0.145753    1.900333   -0.358357
      9          1           0       -2.360255   -0.689310    0.845882
     10          1           0       -1.357275   -1.887450    0.015213
     11          1           0       -2.137503   -0.597303   -0.911673
     12          1           0        0.752325   -1.675728    0.353841
 ---------------------------------------------------------------------
                    Distance matrix (angstroms):
                    1          2          3          4          5
     1  O    0.000000
     2  N    2.276646   0.000000
     3  C    2.754071   1.454756   0.000000
     4  C    3.586914   1.447310   2.505696   0.000000
     5  C    1.215258   1.354399   2.414922   2.450710   0.000000
     6  H    2.885242   2.112740   1.092949   3.161401   2.791925
     7  H    3.807634   2.082736   1.088664   2.543517   3.306759
     8  H    2.648137   2.098491   1.090133   3.291391   2.661777
     9  H    4.215780   2.109184   2.812546   1.094449   3.158605
    10  H    3.743644   2.079630   3.410294   1.089782   2.528497
    11  H    4.258523   2.105776   2.815723   1.093664   3.189678
    12  H    2.036318   2.052589   3.377844   2.557196   1.105335
                    6          7          8          9         10
     6  H    0.000000
     7  H    1.776753   0.000000
     8  H    1.764011   1.777239   0.000000
     9  H    3.178903   2.664755   3.799542   0.000000
    10  H    4.007164   3.601906   4.092181   1.769610   0.000000
    11  H    3.681910   2.526860   3.428936   1.774002   1.769845
    12  H    3.780962   4.132171   3.696399   3.302011   2.147069
                   11         12
    11  H    0.000000
    12  H    3.334011   0.000000
 Stoichiometry    C3H7NO
 Framework group  C1[X(C3H7NO)]
 Deg. of freedom    30
 Full point group                 C1      NOp   1
 Largest Abelian subgroup         C1      NOp   1
 Largest concise Abelian subgroup C1      NOp   1
                         Standard orientation:                         
 ---------------------------------------------------------------------
 Center     Atomic      Atomic             Coordinates (Angstroms)
 Number     Number       Type             X           Y           Z
 ---------------------------------------------------------------------
      1          8           0        1.920248   -0.148637    0.011253
      2          7           0       -0.352191   -0.014907   -0.024135
      3          6           0       -0.329809    1.439458    0.001051
      4          6           0       -1.622982   -0.706732    0.010185
      5          6           0        0.827515   -0.680062   -0.008086
      6          1           0        0.030961    1.813586    0.962514
      7          1           0       -1.337382    1.814209   -0.170839
      8          1           0        0.333903    1.820502   -0.775276
      9          1           0       -2.184637   -0.465575    0.918043
     10          1           0       -1.448108   -1.782257   -0.006831
     11          1           0       -2.238680   -0.445123   -0.855018
     12          1           0        0.698949   -1.777886   -0.012575
 ---------------------------------------------------------------------
 Rotational constants (GHZ):           8.9194812           4.2495178           2.9859615
 Standard basis: 6-31+G(d) (6D, 7F)
 There are   109 symmetry adapted cartesian basis functions of A   symmetry.
 There are   109 symmetry adapted basis functions of A   symmetry.
   109 basis functions,   188 primitive gaussians,   109 cartesian basis functions
    20 alpha electrons       20 beta electrons
       nuclear repulsion energy       181.9608302649 Hartrees.
 NAtoms=   12 NActive=   12 NUniq=   12 SFac= 1.00D+00 NAtFMM=   60 NAOKFM=F Big=F
 Integral buffers will be    131072 words long.
 Raffenetti 2 integral format.
 Two-electron integral symmetry is turned on.
 Nuclear repulsion after empirical dispersion term =      181.9525652882 Hartrees.
 One-electron integrals computed using PRISM.
 NBasis=   109 RedAO= T EigKep=  6.36D-04  NBF=   109
 NBsUse=   109 1.00D-06 EigRej= -1.00D+00 NBFU=   109
 ExpMin= 4.38D-02 ExpMax= 5.48D+03 ExpMxC= 8.25D+02 IAcc=3 IRadAn=         5 AccDes= 0.00D+00
 Harris functional with IExCor= 1009 and IRadAn=       5 diagonalized for initial guess.
 HarFok:  IExCor= 1009 AccDes= 0.00D+00 IRadAn=         5 IDoV= 1 UseB2=F ITyADJ=14
 ICtDFT=  3500011 ScaDFX=  1.000000  1.000000  1.000000  1.000000
 FoFCou: FMM=F IPFlag=           0 FMFlag=      100000 FMFlg1=           0
         NFxFlg=           0 DoJE=T BraDBF=F KetDBF=T FulRan=T
         wScrn=  0.000000 ICntrl=       500 IOpCl=  0 I1Cent=   200000004 NGrid=           0
         NMat0=    1 NMatS0=      1 NMatT0=    0 NMatD0=    1 NMtDS0=    0 NMtDT0=    0
 Petite list used in FoFCou.
 Keep J ints in memory in canonical form, NReq=40380494.
 Requested convergence on RMS density matrix=1.00D-08 within 128 cycles.
 Requested convergence on MAX density matrix=1.00D-06.
 Requested convergence on             energy=1.00D-06.
 No special actions if energy rises.
 SCF Done:  E(RPBE-PBE) =  -248.222637086     A.U. after   13 cycles
            NFock= 13  Conv=0.31D-08     -V/T= 2.0090

 **********************************************************************

            Population analysis using the SCF density.

 **********************************************************************

 Orbital symmetries:
       Occupied  (A) (A) (A) (A) (A) (A) (A) (A) (A) (A) (A) (A)
                 (A) (A) (A) (A) (A) (A) (A) (A)
       Virtual   (A) (A) (A) (A) (A) (A) (A) (A) (A) (A) (A) (A)
                 (A) (A) (A) (A) (A) (A) (A) (A) (A) (A) (A) (A)
                 (A) (A) (A) (A) (A) (A) (A) (A) (A) (A) (A) (A)
                 (A) (A) (A) (A) (A) (A) (A) (A) (A) (A) (A) (A)
                 (A) (A) (A) (A) (A) (A) (A) (A) (A) (A) (A) (A)
                 (A) (A) (A) (A) (A) (A) (A) (A) (A) (A) (A) (A)
                 (A) (A) (A) (A) (A) (A) (A) (A) (A) (A) (A) (A)
                 (A) (A) (A) (A) (A)
 The electronic state is 1-A.
 Alpha  occ. eigenvalues --  -18.74740 -14.05230  -9.98454  -9.94683  -9.93505
 Alpha  occ. eigenvalues --   -0.95283  -0.86766  -0.67607  -0.64454  -0.52008
 Alpha  occ. eigenvalues --   -0.47126  -0.43446  -0.42357  -0.37441  -0.37379
 Alpha  occ. eigenvalues --   -0.35828  -0.35153  -0.33369  -0.21484  -0.21085
 Alpha virt. eigenvalues --   -0.01766  -0.01467   0.01057   0.01993   0.03128
 Alpha virt. eigenvalues --    0.03217   0.04262   0.06110   0.06342   0.07253
 Alpha virt. eigenvalues --    0.09490   0.10580   0.11738   0.12932   0.15298
 Alpha virt. eigenvalues --    0.16014   0.17091   0.18369   0.18827   0.19850
 Alpha virt. eigenvalues --    0.20532   0.22132   0.24881   0.25390   0.26876
 Alpha virt. eigenvalues --    0.27123   0.29276   0.30957   0.32825   0.36490
 Alpha virt. eigenvalues --    0.38224   0.42511   0.59400   0.61066   0.62079
 Alpha virt. eigenvalues --    0.64742   0.66538   0.68558   0.71045   0.73326
 Alpha virt. eigenvalues --    0.81262   0.84221   0.85135   0.87000   0.90179
 Alpha virt. eigenvalues --    0.94764   0.95229   0.99738   1.02957   1.05478
 Alpha virt. eigenvalues --    1.09815   1.14042   1.18641   1.21983   1.25312
 Alpha virt. eigenvalues --    1.27811   1.29450   1.32684   1.38332   1.46243
 Alpha virt. eigenvalues --    1.48346   1.63720   1.72237   1.73456   1.82975
 Alpha virt. eigenvalues --    1.83414   1.87663   1.89317   1.93229   1.99304
 Alpha virt. eigenvalues --    2.01755   2.11174   2.14642   2.23521   2.26308
 Alpha virt. eigenvalues --    2.28427   2.34480   2.36061   2.49109   2.58319
 Alpha virt. eigenvalues --    2.59547   2.77923   2.98488   3.08826   4.01165
 Alpha virt. eigenvalues --    4.09451   4.21559   4.28632   4.34878
          Condensed to atoms (all electrons):
               1          2          3          4          5          6
     1  O    8.203115  -0.183269   0.008649   0.034797   0.418993   0.000657
     2  N   -0.183269   7.380299   0.133212   0.171038   0.069160  -0.046007
     3  C    0.008649   0.133212   5.421266  -0.095927  -0.061993   0.400329
     4  C    0.034797   0.171038  -0.095927   5.395157  -0.056782  -0.001891
     5  C    0.418993   0.069160  -0.061993  -0.056782   5.036629  -0.013380
     6  H    0.000657  -0.046007   0.400329  -0.001891  -0.013380   0.475625
     7  H    0.002907  -0.053801   0.380218  -0.004383   0.011490  -0.029131
     8  H    0.001191  -0.037198   0.391175   0.003614  -0.012753  -0.031851
     9  H   -0.000109  -0.053511   0.003085   0.381884  -0.004080   0.001853
    10  H    0.001576  -0.072624   0.005603   0.396886   0.003765  -0.000167
    11  H   -0.000421  -0.050528  -0.007716   0.387512  -0.001671  -0.000510
    12  H   -0.042981  -0.208477   0.013896  -0.006499   0.453091  -0.000166
               7          8          9         10         11         12
     1  O    0.002907   0.001191  -0.000109   0.001576  -0.000421  -0.042981
     2  N   -0.053801  -0.037198  -0.053511  -0.072624  -0.050528  -0.208477
     3  C    0.380218   0.391175   0.003085   0.005603  -0.007716   0.013896
     4  C   -0.004383   0.003614   0.381884   0.396886   0.387512  -0.006499
     5  C    0.011490  -0.012753  -0.004080   0.003765  -0.001671   0.453091
     6  H   -0.029131  -0.031851   0.001853  -0.000167  -0.000510  -0.000166
     7  H    0.503122  -0.023692  -0.001274   0.000352   0.001710  -0.000048
     8  H   -0.023692   0.457039  -0.000294  -0.000164   0.000791  -0.000009
     9  H   -0.001274  -0.000294   0.512103  -0.024902  -0.045967  -0.000145
    10  H    0.000352  -0.000164  -0.024902   0.484543  -0.023495   0.011319
    11  H    0.001710   0.000791  -0.045967  -0.023495   0.509755  -0.000183
    12  H   -0.000048  -0.000009  -0.000145   0.011319  -0.000183   0.635831
 Mulliken charges:
               1
     1  O   -0.445105
     2  N   -0.048294
     3  C   -0.591796
     4  C   -0.605406
     5  C    0.157530
     6  H    0.244636
     7  H    0.212529
     8  H    0.252149
     9  H    0.231357
    10  H    0.217307
    11  H    0.230722
    12  H    0.144370
 Sum of Mulliken charges =  -0.00000
 Mulliken charges with hydrogens summed into heavy atoms:
               1
     1  O   -0.445105
     2  N   -0.048294
     3  C    0.117518
     4  C    0.073980
     5  C    0.301901
 Electronic spatial extent (au):  <R**2>=            441.2017
 Charge=              0.0000 electrons
 Dipole moment (field-independent basis, Debye):
    X=             -4.2016    Y=             -0.1366    Z=             -0.0104  Tot=              4.2038
 Quadrupole moment (field-independent basis, Debye-Ang):
   XX=            -37.4071   YY=            -28.0249   ZZ=            -31.4933
   XY=              0.1818   XZ=             -0.0953   YZ=             -0.0714
 Traceless Quadrupole moment (field-independent basis, Debye-Ang):
   XX=             -5.0986   YY=              4.2835   ZZ=              0.8151
   XY=              0.1818   XZ=             -0.0953   YZ=             -0.0714
 Octapole moment (field-independent basis, Debye-Ang**2):
  XXX=            -17.7513  YYY=             -0.9076  ZZZ=              0.3488  XYY=              0.8975
  XXY=              0.1695  XXZ=             -0.5215  XZZ=              1.0914  YZZ=              0.9000
  YYZ=             -0.1728  XYZ=             -0.0036
 Hexadecapole moment (field-independent basis, Debye-Ang**3):
 XXXX=           -369.4764 YYYY=           -194.5162 ZZZZ=            -46.5588 XXXY=              2.5607
 XXXZ=              0.4088 YYYX=             -0.6216 YYYZ=             -0.2710 ZZZX=             -0.1661
 ZZZY=              0.3391 XXYY=            -88.4432 XXZZ=            -62.4116 YYZZ=            -41.5681
 XXYZ=             -0.6945 YYXZ=             -0.0275 ZZXY=              0.5442
 N-N= 1.819525652882D+02 E-N=-9.422828961893D+02  KE= 2.460037159188D+02
 There are a total of      274094 grid points.
 ElSum from          density=       40.0000072632
 ElSum from atomic densities=       40.0000146252

 Hirshfeld populations at iteration   1 (CX, CA, CB, DipXYZ):
               1          2          3          4          5          6
     1  O    0.000005   4.145768   4.145768  -0.164400  -0.042680  -0.004605
     2  N    0.000000   3.512412   3.512412  -0.039893   0.029084   0.009132
     3  C    0.000000   3.019856   3.019856  -0.012299  -0.033458  -0.000690
     4  C    0.000000   3.019001   3.019001   0.029929   0.017455   0.000156
     5  C    0.000000   2.950605   2.950605  -0.054897  -0.013944   0.000207
     6  H    0.000002   0.478266   0.478266   0.038972   0.059344   0.120537
     7  H    0.000001   0.478304   0.478304  -0.125066   0.057749  -0.022047
     8  H    0.000002   0.477016   0.477016   0.070043   0.067600  -0.102792
     9  H    0.000002   0.479944   0.479944  -0.074307   0.025537   0.112525
    10  H    0.000001   0.476243   0.476243   0.006242  -0.139531  -0.001958
    11  H    0.000002   0.479712   0.479712  -0.081787   0.027928  -0.107740
    12  H    0.000002   0.482875   0.482875   0.000200  -0.118527   0.000266
       Tot   0.000017  20.000004  20.000004  -0.407263  -0.063444   0.002990

 Dip from Atomic Chgs             -1.245749   0.009722  -0.007074
         Total Dipole             -1.653012  -0.053722  -0.004084

 Hirshfeld charges, spin densities, dipoles, and CM5 charges using IRadAn=      5:
              Q-H        S-H        Dx         Dy         Dz        Q-CM5   
     1  O   -0.291537   0.000000  -0.164400  -0.042680  -0.004605  -0.341065
     2  N   -0.024825   0.000000  -0.039893   0.029084   0.009132  -0.302791
     3  C   -0.039712   0.000000  -0.012299  -0.033458  -0.000690  -0.127371
     4  C   -0.038003   0.000000   0.029929   0.017455   0.000156  -0.125997
     5  C    0.098790   0.000000  -0.054897  -0.013944   0.000207   0.157251
     6  H    0.043469   0.000000   0.038972   0.059344   0.120537   0.105311
     7  H    0.043391   0.000000  -0.125066   0.057749  -0.022047   0.105899
     8  H    0.045968   0.000000   0.070043   0.067600  -0.102792   0.109902
     9  H    0.040113   0.000000  -0.074307   0.025537   0.112525   0.100479
    10  H    0.047513   0.000000   0.006242  -0.139531  -0.001958   0.110017
    11  H    0.040575   0.000000  -0.081787   0.027928  -0.107740   0.101104
    12  H    0.034250   0.000000   0.000200  -0.118527   0.000266   0.107255
       Tot  -0.000007   0.000000  -0.407263  -0.063444   0.002990  -0.000007
 Hirshfeld charges with hydrogens summed into heavy atoms:
              Q-H       Q-CM5   
     1  O   -0.291537  -0.341065
     2  N   -0.024825  -0.302791
     3  C    0.093116   0.193741
     4  C    0.090198   0.185603
     5  C    0.133040   0.264505
 
 EQQ= 0.000000000000E+00 EQD= 0.000000000000E+00 EDD=-0.535138925906E-03
 EQQ+QD+DD=-0.535138925906E-03
 
 Merz-Kollman atomic radii used.

 **********************************************************************

            Electrostatic Properties Using The SCF Density

 **********************************************************************

       Atomic Center    1 is at   1.920248 -0.148637  0.011253
       Atomic Center    2 is at  -0.352191 -0.014907 -0.024135
       Atomic Center    3 is at  -0.329809  1.439458  0.001051
       Atomic Center    4 is at  -1.622982 -0.706732  0.010185
       Atomic Center    5 is at   0.827515 -0.680062 -0.008086
       Atomic Center    6 is at   0.030961  1.813586  0.962514
       Atomic Center    7 is at  -1.337382  1.814209 -0.170839
       Atomic Center    8 is at   0.333903  1.820502 -0.775276
       Atomic Center    9 is at  -2.184637 -0.465575  0.918043
       Atomic Center   10 is at  -1.448108 -1.782257 -0.006831
       Atomic Center   11 is at  -2.238680 -0.445123 -0.855018
       Atomic Center   12 is at   0.698949 -1.777886 -0.012575
     633 points will be used for fitting atomic charges
 Fitting point charges to electrostatic potential
 Charges from ESP fit, RMS=   0.00153 RRMS=   0.07312:
 ESP charges:
               1
     1  O   -0.502856
     2  N    0.061281
     3  C   -0.295944
     4  C   -0.383712
     5  C    0.333667
     6  H    0.120560
     7  H    0.122481
     8  H    0.126283
     9  H    0.137882
    10  H    0.126733
    11  H    0.131942
    12  H    0.021684
 Sum of ESP charges =  -0.00000
 ESP charges with hydrogens summed into heavy atoms:
               1
     1  O   -0.502856
     2  N    0.061281
     3  C    0.073379
     4  C    0.012845
     5  C    0.355351
 Charge=  -0.00000 Dipole=    -4.1960    -0.1177    -0.0202 Tot=     4.1977
 -----------------------------------------------------------------

              Electrostatic Properties (Atomic Units)

 -----------------------------------------------------------------
    Center     Electric         -------- Electric Field --------
               Potential          X             Y             Z
 -----------------------------------------------------------------
    1 Atom    -22.323362
    2 Atom    -18.282786
    3 Atom    -14.694996
    4 Atom    -14.683082
    5 Atom    -14.651255
    6 Atom     -1.096821
    7 Atom     -1.086314
    8 Atom     -1.096549
    9 Atom     -1.086733
   10 Atom     -1.076286
   11 Atom     -1.086304
   12 Atom     -1.089842
 -----------------------------------------------------------------
 ******************************Gaussian NBO Version 3.1******************************
             N A T U R A L   A T O M I C   O R B I T A L   A N D
          N A T U R A L   B O N D   O R B I T A L   A N A L Y S I S
 ******************************Gaussian NBO Version 3.1******************************

       /RESON  / : Allow strongly delocalized NBO set
       /BNDIDX / : Print bond indices based on the NAO density matrix

 Analyzing the SCF density

 Job title: DMF                                                             

 Storage needed:     36199 in NPA,     48014 in NBO (3932159160 available)


 NATURAL POPULATIONS:  Natural atomic orbital occupancies 
                                                          
   NAO  Atom  No  lang   Type(AO)    Occupancy      Energy
 ----------------------------------------------------------
     1    O    1  S      Cor( 1S)     1.99980     -18.48860
     2    O    1  S      Val( 2S)     1.70542      -0.80766
     3    O    1  S      Ryd( 3S)     0.00268       1.07179
     4    O    1  S      Ryd( 4S)     0.00013       1.82402
     5    O    1  S      Ryd( 5S)     0.00006       3.28679
     6    O    1  px     Val( 2p)     1.61122      -0.23582
     7    O    1  px     Ryd( 3p)     0.00094       0.85947
     8    O    1  px     Ryd( 4p)     0.00011       0.96895
     9    O    1  py     Val( 2p)     1.78058      -0.20318
    10    O    1  py     Ryd( 3p)     0.00275       0.67809
    11    O    1  py     Ryd( 4p)     0.00004       0.93221
    12    O    1  pz     Val( 2p)     1.47848      -0.20879
    13    O    1  pz     Ryd( 3p)     0.00145       0.53632
    14    O    1  pz     Ryd( 4p)     0.00002       0.90709
    15    O    1  dxy    Ryd( 3d)     0.00471       2.12474
    16    O    1  dxz    Ryd( 3d)     0.00355       1.78390
    17    O    1  dyz    Ryd( 3d)     0.00087       1.76161
    18    O    1  dx2y2  Ryd( 3d)     0.00460       2.05912
    19    O    1  dz2    Ryd( 3d)     0.00158       1.95159

    20    N    2  S      Cor( 1S)     1.99942     -13.88522
    21    N    2  S      Val( 2S)     1.22733      -0.50817
    22    N    2  S      Ryd( 4S)     0.00154       1.31786
    23    N    2  S      Ryd( 3S)     0.00018       0.56424
    24    N    2  S      Ryd( 5S)     0.00001       3.36909
    25    N    2  px     Val( 2p)     1.30278      -0.23733
    26    N    2  px     Ryd( 4p)     0.00166       0.94184
    27    N    2  px     Ryd( 3p)     0.00084       0.60532
    28    N    2  py     Val( 2p)     1.29184      -0.23330
    29    N    2  py     Ryd( 4p)     0.00125       0.96294
    30    N    2  py     Ryd( 3p)     0.00051       0.60768
    31    N    2  pz     Val( 2p)     1.64199      -0.22061
    32    N    2  pz     Ryd( 3p)     0.00646       0.50983
    33    N    2  pz     Ryd( 4p)     0.00047       0.54390
    34    N    2  dxy    Ryd( 3d)     0.00067       2.38778
    35    N    2  dxz    Ryd( 3d)     0.00057       1.84744
    36    N    2  dyz    Ryd( 3d)     0.00043       1.81978
    37    N    2  dx2y2  Ryd( 3d)     0.00057       2.39032
    38    N    2  dz2    Ryd( 3d)     0.00049       2.20897

    39    C    3  S      Cor( 1S)     1.99954      -9.81195
    40    C    3  S      Val( 2S)     1.09629      -0.26326
    41    C    3  S      Ryd( 4S)     0.00086       1.16835
    42    C    3  S      Ryd( 3S)     0.00015       0.69894
    43    C    3  S      Ryd( 5S)     0.00001       3.99644
    44    C    3  px     Val( 2p)     1.26687      -0.10160
    45    C    3  px     Ryd( 4p)     0.00404       0.58065
    46    C    3  px     Ryd( 3p)     0.00019       0.34759
    47    C    3  py     Val( 2p)     0.86869      -0.08227
    48    C    3  py     Ryd( 4p)     0.00239       0.41795
    49    C    3  py     Ryd( 3p)     0.00021       0.30905
    50    C    3  pz     Val( 2p)     1.27343      -0.10197
    51    C    3  pz     Ryd( 4p)     0.00112       0.51460
    52    C    3  pz     Ryd( 3p)     0.00064       0.32269
    53    C    3  dxy    Ryd( 3d)     0.00055       1.98944
    54    C    3  dxz    Ryd( 3d)     0.00051       1.96286
    55    C    3  dyz    Ryd( 3d)     0.00114       1.85570
    56    C    3  dx2y2  Ryd( 3d)     0.00103       2.16083
    57    C    3  dz2    Ryd( 3d)     0.00072       2.05416

    58    C    4  S      Cor( 1S)     1.99954      -9.82330
    59    C    4  S      Val( 2S)     1.09143      -0.27273
    60    C    4  S      Ryd( 4S)     0.00060       1.19428
    61    C    4  S      Ryd( 3S)     0.00020       0.53313
    62    C    4  S      Ryd( 5S)     0.00001       4.05218
    63    C    4  px     Val( 2p)     0.96939      -0.09590
    64    C    4  px     Ryd( 4p)     0.00193       0.46152
    65    C    4  px     Ryd( 3p)     0.00014       0.26912
    66    C    4  py     Val( 2p)     1.17652      -0.11029
    67    C    4  py     Ryd( 4p)     0.00235       0.55862
    68    C    4  py     Ryd( 3p)     0.00008       0.32475
    69    C    4  pz     Val( 2p)     1.25582      -0.11154
    70    C    4  pz     Ryd( 4p)     0.00024       0.54697
    71    C    4  pz     Ryd( 3p)     0.00031       0.27284
    72    C    4  dxy    Ryd( 3d)     0.00070       2.03125
    73    C    4  dxz    Ryd( 3d)     0.00151       2.04961
    74    C    4  dyz    Ryd( 3d)     0.00032       1.73146
    75    C    4  dx2y2  Ryd( 3d)     0.00087       2.09515
    76    C    4  dz2    Ryd( 3d)     0.00068       2.04616

    77    C    5  S      Cor( 1S)     1.99949      -9.86195
    78    C    5  S      Val( 2S)     0.86328      -0.17231
    79    C    5  S      Ryd( 4S)     0.00767       1.25171
    80    C    5  S      Ryd( 5S)     0.00027       3.41814
    81    C    5  S      Ryd( 3S)     0.00010       0.69038
    82    C    5  px     Val( 2p)     0.75766       0.01641
    83    C    5  px     Ryd( 4p)     0.01431       0.60637
    84    C    5  px     Ryd( 3p)     0.00056       0.30766
    85    C    5  py     Val( 2p)     1.04646      -0.05159
    86    C    5  py     Ryd( 4p)     0.00559       0.84554
    87    C    5  py     Ryd( 3p)     0.00013       0.35048
    88    C    5  pz     Val( 2p)     0.83204      -0.12993
    89    C    5  pz     Ryd( 4p)     0.00102       0.56863
    90    C    5  pz     Ryd( 3p)     0.00037       0.23929
    91    C    5  dxy    Ryd( 3d)     0.00196       2.46370
    92    C    5  dxz    Ryd( 3d)     0.00227       2.15788
    93    C    5  dyz    Ryd( 3d)     0.00039       1.81240
    94    C    5  dx2y2  Ryd( 3d)     0.00237       2.56765
    95    C    5  dz2    Ryd( 3d)     0.00030       2.27849

    96    H    6  S      Val( 1S)     0.74627       0.06484
    97    H    6  S      Ryd( 2S)     0.00115       0.66164

    98    H    7  S      Val( 1S)     0.75780       0.05198
    99    H    7  S      Ryd( 2S)     0.00046       0.65812

   100    H    8  S      Val( 1S)     0.73474       0.07399
   101    H    8  S      Ryd( 2S)     0.00112       0.66468

   102    H    9  S      Val( 1S)     0.75863       0.04644
   103    H    9  S      Ryd( 2S)     0.00105       0.65021

   104    H   10  S      Val( 1S)     0.74922       0.04751
   105    H   10  S      Ryd( 2S)     0.00125       0.65120

   106    H   11  S      Val( 1S)     0.75768       0.04663
   107    H   11  S      Ryd( 2S)     0.00098       0.64742

   108    H   12  S      Val( 1S)     0.85172       0.01105
   109    H   12  S      Ryd( 2S)     0.00272       0.65082

 WARNING:  Population inversion found on atom  N    2
           Population inversion found on atom  C    3
           Population inversion found on atom  C    4
           Population inversion found on atom  C    5


 Summary of Natural Population Analysis:                  
                                                          
                                       Natural Population 
                Natural  -----------------------------------------------
    Atom  No    Charge         Core      Valence    Rydberg      Total
 -----------------------------------------------------------------------
      O    1   -0.59898      1.99980     6.57570    0.02348     8.59898
      N    2   -0.47900      1.99942     5.46394    0.01564     7.47900
      C    3   -0.51838      1.99954     4.50528    0.01356     6.51838
      C    4   -0.50262      1.99954     4.49316    0.00993     6.50262
      C    5    0.46376      1.99949     3.49945    0.03731     5.53624
      H    6    0.25258      0.00000     0.74627    0.00115     0.74742
      H    7    0.24174      0.00000     0.75780    0.00046     0.75826
      H    8    0.26415      0.00000     0.73474    0.00112     0.73585
      H    9    0.24032      0.00000     0.75863    0.00105     0.75968
      H   10    0.24953      0.00000     0.74922    0.00125     0.75047
      H   11    0.24134      0.00000     0.75768    0.00098     0.75866
      H   12    0.14555      0.00000     0.85172    0.00272     0.85445
 =======================================================================
   * Total *   -0.00000      9.99778    29.89357    0.10864    40.00000

                                 Natural Population      
 --------------------------------------------------------
   Core                       9.99778 ( 99.9778% of  10)
   Valence                   29.89357 ( 99.6452% of  30)
   Natural Minimal Basis     39.89136 ( 99.7284% of  40)
   Natural Rydberg Basis      0.10864 (  0.2716% of  40)
 --------------------------------------------------------

    Atom  No          Natural Electron Configuration
 ----------------------------------------------------------------------------
      O    1      [core]2S( 1.71)2p( 4.87)3p( 0.01)3d( 0.02)
      N    2      [core]2S( 1.23)2p( 4.24)3p( 0.01)
      C    3      [core]2S( 1.10)2p( 3.41)4p( 0.01)
      C    4      [core]2S( 1.09)2p( 3.40)
      C    5      [core]2S( 0.86)2p( 2.64)4S( 0.01)3d( 0.01)4p( 0.02)
      H    6            1S( 0.75)
      H    7            1S( 0.76)
      H    8            1S( 0.73)
      H    9            1S( 0.76)
      H   10            1S( 0.75)
      H   11            1S( 0.76)
      H   12            1S( 0.85)


 Wiberg bond index matrix in the NAO basis:                                    

     Atom    1       2       3       4       5       6       7       8       9
     ---- ------  ------  ------  ------  ------  ------  ------  ------  ------
   1.  O  0.0000  0.2087  0.0105  0.0209  1.6783  0.0077  0.0023  0.0069  0.0073
   2.  N  0.2087  0.0000  0.9489  0.9656  1.2120  0.0097  0.0013  0.0064  0.0122
   3.  C  0.0105  0.9489  0.0000  0.0105  0.0174  0.9094  0.9277  0.9072  0.0002
   4.  C  0.0209  0.9656  0.0105  0.0000  0.0144  0.0024  0.0012  0.0049  0.9129
   5.  C  1.6783  1.2120  0.0174  0.0144  0.0000  0.0068  0.0077  0.0039  0.0095
   6.  H  0.0077  0.0097  0.9094  0.0024  0.0068  0.0000  0.0004  0.0003  0.0008
   7.  H  0.0023  0.0013  0.9277  0.0012  0.0077  0.0004  0.0000  0.0007  0.0000
   8.  H  0.0069  0.0064  0.9072  0.0049  0.0039  0.0003  0.0007  0.0000  0.0001
   9.  H  0.0073  0.0122  0.0002  0.9129  0.0095  0.0008  0.0000  0.0001  0.0000
  10.  H  0.0040  0.0015  0.0105  0.9167  0.0011  0.0003  0.0004  0.0005  0.0006
  11.  H  0.0064  0.0114  0.0003  0.9140  0.0093  0.0002  0.0003  0.0004  0.0002
  12.  H  0.0721  0.0055  0.0188  0.0003  0.8827  0.0001  0.0001  0.0004  0.0000

     Atom   10      11      12
     ---- ------  ------  ------
   1.  O  0.0040  0.0064  0.0721
   2.  N  0.0015  0.0114  0.0055
   3.  C  0.0105  0.0003  0.0188
   4.  C  0.9167  0.9140  0.0003
   5.  C  0.0011  0.0093  0.8827
   6.  H  0.0003  0.0002  0.0001
   7.  H  0.0004  0.0003  0.0001
   8.  H  0.0005  0.0004  0.0004
   9.  H  0.0006  0.0002  0.0000
  10.  H  0.0000  0.0006  0.0034
  11.  H  0.0006  0.0000  0.0000
  12.  H  0.0034  0.0000  0.0000


 Wiberg bond index, Totals by atom:                                            

     Atom    1
     ---- ------
   1.  O  2.0252
   2.  N  3.3831
   3.  C  3.7615
   4.  C  3.7640
   5.  C  3.8432
   6.  H  0.9379
   7.  H  0.9423
   8.  H  0.9319
   9.  H  0.9438
  10.  H  0.9396
  11.  H  0.9432
  12.  H  0.9835


 Atom-atom overlap-weighted NAO bond order:                                    

     Atom    1       2       3       4       5       6       7       8       9
     ---- ------  ------  ------  ------  ------  ------  ------  ------  ------
   1.  O  0.0000 -0.0591 -0.0038  0.0049  1.2715  0.0033  0.0009  0.0047  0.0000
   2.  N -0.0591  0.0000  0.7925  0.8084  1.0165 -0.0151 -0.0049 -0.0096 -0.0171
   3.  C -0.0038  0.7925  0.0000  0.0012  0.0009  0.7425  0.7533  0.7440 -0.0009
   4.  C  0.0049  0.8084  0.0012  0.0000  0.0084  0.0032 -0.0038  0.0032  0.7434
   5.  C  1.2715  1.0165  0.0009  0.0084  0.0000 -0.0070  0.0068 -0.0087  0.0002
   6.  H  0.0033 -0.0151  0.7425  0.0032 -0.0070  0.0000  0.0007 -0.0020  0.0012
   7.  H  0.0009 -0.0049  0.7533 -0.0038  0.0068  0.0007  0.0000  0.0038 -0.0002
   8.  H  0.0047 -0.0096  0.7440  0.0032 -0.0087 -0.0020  0.0038  0.0000 -0.0002
   9.  H  0.0000 -0.0171 -0.0009  0.7434  0.0002  0.0012 -0.0002 -0.0002  0.0000
  10.  H  0.0001 -0.0059  0.0035  0.7473 -0.0006 -0.0001  0.0003 -0.0001  0.0019
  11.  H -0.0001 -0.0167 -0.0013  0.7441  0.0010 -0.0003  0.0017  0.0006 -0.0056
  12.  H -0.0319 -0.0213 -0.0013 -0.0028  0.7501  0.0001 -0.0000  0.0003  0.0001

     Atom   10      11      12
     ---- ------  ------  ------
   1.  O  0.0001 -0.0001 -0.0319
   2.  N -0.0059 -0.0167 -0.0213
   3.  C  0.0035 -0.0013 -0.0013
   4.  C  0.7473  0.7441 -0.0028
   5.  C -0.0006  0.0010  0.7501
   6.  H -0.0001 -0.0003  0.0001
   7.  H  0.0003  0.0017 -0.0000
   8.  H -0.0001  0.0006  0.0003
   9.  H  0.0019 -0.0056  0.0001
  10.  H  0.0000  0.0021  0.0112
  11.  H  0.0021  0.0000  0.0001
  12.  H  0.0112  0.0001  0.0000


 Atom-atom overlap-weighted NAO bond order, Totals by atom:                    

     Atom    1
     ---- ------
   1.  O  1.1905
   2.  N  2.4676
   3.  C  3.0305
   4.  C  3.0575
   5.  C  3.0390
   6.  H  0.7264
   7.  H  0.7586
   8.  H  0.7360
   9.  H  0.7229
  10.  H  0.7596
  11.  H  0.7254
  12.  H  0.7045


 MO bond order:                                                                

     Atom    1       2       3       4       5       6       7       8       9
     ---- ------  ------  ------  ------  ------  ------  ------  ------  ------
   1.  O  0.0000 -0.4502 -0.0071 -0.0390  0.6248  0.0582  0.0296 -0.0642  0.0791
   2.  N -0.4502  0.0000 -0.4762 -0.6920  0.7941 -0.0733 -0.0168  0.0523 -0.1195
   3.  C -0.0071 -0.4762  0.0000  0.0663 -0.1392  1.8005 -0.0827  0.6866  0.0023
   4.  C -0.0390 -0.6920  0.0663  0.0000  0.0448  0.0433 -0.0360  0.1159  0.9368
   5.  C  0.6248  0.7941 -0.1392  0.0448  0.0000 -0.0903  0.0609  0.0436 -0.0437
   6.  H  0.0582 -0.0733  1.8005  0.0433 -0.0903  0.0000  0.0312  0.0296  0.0124
   7.  H  0.0296 -0.0168 -0.0827 -0.0360  0.0609  0.0312  0.0000  0.0357  0.0066
   8.  H -0.0642  0.0523  0.6866  0.1159  0.0436  0.0296  0.0357  0.0000 -0.0005
   9.  H  0.0791 -0.1195  0.0023  0.9368 -0.0437  0.0124  0.0066 -0.0005  0.0000
  10.  H -0.0022 -0.0437 -0.0376 -0.2492 -0.0541 -0.0097  0.0152 -0.0151  0.0369
  11.  H -0.0522  0.0905 -0.0028 -0.3978  0.1142 -0.0040  0.0160  0.0104  0.0199
  12.  H  0.1578 -0.0484 -0.0392 -0.0054 -0.2884 -0.0013 -0.0110  0.0059  0.0024

     Atom   10      11      12
     ---- ------  ------  ------
   1.  O -0.0022 -0.0522  0.1578
   2.  N -0.0437  0.0905 -0.0484
   3.  C -0.0376 -0.0028 -0.0392
   4.  C -0.2492 -0.3978 -0.0054
   5.  C -0.0541  0.1142 -0.2884
   6.  H -0.0097 -0.0040 -0.0013
   7.  H  0.0152  0.0160 -0.0110
   8.  H -0.0151  0.0104  0.0059
   9.  H  0.0369  0.0199  0.0024
  10.  H  0.0000  0.0377  0.0450
  11.  H  0.0377  0.0000  0.0030
  12.  H  0.0450  0.0030  0.0000


 MO atomic valencies:                                                          

     Atom    1
     ---- ------
   1.  O  0.3346
   2.  N -0.9832
   3.  C  1.7710
   4.  C -0.2123
   5.  C  1.0668
   6.  H  1.7967
   7.  H  0.0487
   8.  H  0.9001
   9.  H  0.9325
  10.  H -0.2769
  11.  H -0.1651
  12.  H -0.1796


 NATURAL BOND ORBITAL ANALYSIS:

                       Occupancies       Lewis Structure    Low   High
           Occ.    -------------------  -----------------   occ   occ
  Cycle   Thresh.   Lewis   Non-Lewis     CR  BD  3C  LP    (L)   (NL)   Dev
 =============================================================================
   1(1)    1.90    38.95133   1.04867      5  13   0   2     4      2    0.21
   2(2)    1.90    39.08642   0.91358      5  12   0   3     2      1    0.68
   3(3)    1.90    38.95133   1.04867      5  13   0   2     4      2    0.21
   4(4)    1.90    39.08642   0.91358      5  12   0   3     2      1    0.68
   5(5)    1.90    38.95133   1.04867      5  13   0   2     4      2    0.21
   6(6)    1.90    39.08642   0.91358      5  12   0   3     2      1    0.68
   7(7)    1.90    38.95133   1.04867      5  13   0   2     4      2    0.21
   8(8)    1.90    39.08642   0.91358      5  12   0   3     2      1    0.68
   9(9)    1.90    38.95133   1.04867      5  13   0   2     4      2    0.21
  10(1)    1.80    39.12591   0.87409      5  12   0   3     1      1    0.68
  11(2)    1.80    39.33383   0.66617      5  12   0   3     1      1    0.21
  12(3)    1.80    39.12591   0.87409      5  12   0   3     1      1    0.68
  13(4)    1.80    39.33383   0.66617      5  12   0   3     1      1    0.21
  14(1)    1.70    38.76617   1.23383      5  13   0   2     2      2    0.21
  15(2)    1.70    39.12591   0.87409      5  12   0   3     1      1    0.68
  16(3)    1.70    38.76617   1.23383      5  13   0   2     2      2    0.21
  17(4)    1.70    39.12591   0.87409      5  12   0   3     1      1    0.68
  18(5)    1.70    38.76617   1.23383      5  13   0   2     2      2    0.21
  19(6)    1.70    39.12591   0.87409      5  12   0   3     1      1    0.68
  20(7)    1.70    38.76617   1.23383      5  13   0   2     2      2    0.21
  21(8)    1.70    39.12591   0.87409      5  12   0   3     1      1    0.68
  22(9)    1.70    38.76617   1.23383      5  13   0   2     2      2    0.21
  23(1)    1.60    39.33397   0.66603      5  12   0   3     0      1    0.21
  24(2)    1.60    39.33397   0.66603      5  12   0   3     0      1    0.21
  25(1)    1.50    39.33397   0.66603      5  12   0   3     0      1    0.21
  26(2)    1.50    39.33397   0.66603      5  12   0   3     0      1    0.21
  27(1)    1.60    39.33397   0.66603      5  12   0   3     0      1    0.21
 -----------------------------------------------------------------------------

 Structure accepted: RESONANCE keyword permits strongly delocalized structure

 --------------------------------------------------------
   Core                      9.99778 ( 99.978% of  10)
   Valence Lewis            29.33619 ( 97.787% of  30)
  ==================       ============================
   Total Lewis              39.33397 ( 98.335% of  40)
  -----------------------------------------------------
   Valence non-Lewis         0.59696 (  1.492% of  40)
   Rydberg non-Lewis         0.06908 (  0.173% of  40)
  ==================       ============================
   Total non-Lewis           0.66603 (  1.665% of  40)
 --------------------------------------------------------


       (Occupancy)   Bond orbital/ Coefficients/ Hybrids
 ---------------------------------------------------------------------------------
     1. (1.99666) BD ( 1) O   1 - C   5  
                ( 69.34%)   0.8327* O   1 s(  0.32%)p99.99( 99.38%)d 0.93(  0.30%)
                                           -0.0000  0.0568 -0.0032 -0.0004 -0.0000
                                           -0.0728  0.0011  0.0001 -0.0441  0.0009
                                            0.0000  0.9931 -0.0137  0.0015  0.0046
                                           -0.0492 -0.0231  0.0036 -0.0043
                ( 30.66%)   0.5537* C   5 s(  0.27%)p99.99( 99.57%)d 0.58(  0.16%)
                                            0.0000  0.0517 -0.0051 -0.0006 -0.0001
                                            0.0516 -0.0070 -0.0010  0.0259 -0.0017
                                           -0.0007  0.9956  0.0274  0.0212  0.0013
                                            0.0343  0.0195  0.0010  0.0001
     2. (1.99438) BD ( 2) O   1 - C   5  
                ( 64.55%)   0.8034* O   1 s( 39.63%)p 1.51( 59.96%)d 0.01(  0.41%)
                                           -0.0000 -0.6287  0.0328  0.0016  0.0015
                                            0.6904 -0.0104 -0.0016  0.3354 -0.0100
                                            0.0015  0.1016 -0.0015  0.0001 -0.0420
                                           -0.0061 -0.0027 -0.0366  0.0303
                ( 35.45%)   0.5954* C   5 s( 33.73%)p 1.96( 66.18%)d 0.00(  0.09%)
                                            0.0001 -0.5776  0.0609  0.0049  0.0009
                                           -0.7188  0.0657  0.0039 -0.3667  0.0147
                                            0.0075  0.0774  0.0037  0.0019 -0.0232
                                            0.0024  0.0015 -0.0135  0.0119
     3. (1.98724) BD ( 1) N   2 - C   3  
                ( 63.02%)   0.7938* N   2 s( 31.41%)p 2.18( 68.57%)d 0.00(  0.02%)
                                           -0.0001  0.5605 -0.0017  0.0022 -0.0001
                                           -0.0022  0.0053  0.0009  0.8277 -0.0104
                                           -0.0109  0.0154  0.0001 -0.0003  0.0007
                                            0.0000  0.0014 -0.0080 -0.0113
                ( 36.98%)   0.6081* C   3 s( 22.13%)p 3.51( 77.77%)d 0.00(  0.10%)
                                            0.0001  0.4700 -0.0195 -0.0023  0.0009
                                           -0.0076 -0.0065  0.0001 -0.8810 -0.0377
                                           -0.0007 -0.0089 -0.0031 -0.0008  0.0025
                                            0.0002  0.0009 -0.0276 -0.0168
     4. (1.98953) BD ( 1) N   2 - C   4  
                ( 62.71%)   0.7919* N   2 s( 32.82%)p 2.05( 67.16%)d 0.00(  0.02%)
                                            0.0002 -0.5728  0.0049  0.0018 -0.0002
                                            0.7202 -0.0064 -0.0037  0.3903 -0.0009
                                           -0.0049 -0.0227 -0.0001  0.0006 -0.0071
                                            0.0012  0.0009 -0.0043  0.0112
                ( 37.29%)   0.6107* C   4 s( 22.71%)p 3.40( 77.19%)d 0.00(  0.10%)
                                           -0.0001 -0.4760  0.0222  0.0024  0.0004
                                           -0.7669 -0.0328  0.0027 -0.4264 -0.0194
                                            0.0021  0.0189  0.0024  0.0000 -0.0232
                                            0.0010  0.0005 -0.0151  0.0163
     5. (1.99030) BD ( 1) N   2 - C   5  
                ( 64.17%)   0.8011* N   2 s( 35.65%)p 1.80( 64.32%)d 0.00(  0.02%)
                                           -0.0001  0.5971 -0.0016 -0.0003 -0.0002
                                            0.6935 -0.0056  0.0040 -0.4026  0.0079
                                           -0.0007  0.0090  0.0004 -0.0004 -0.0084
                                            0.0010 -0.0006  0.0060 -0.0108
                ( 35.83%)   0.5986* C   5 s( 32.50%)p 2.07( 67.40%)d 0.00(  0.10%)
                                            0.0001  0.5700 -0.0079 -0.0027 -0.0012
                                           -0.6849  0.0429  0.0038  0.4504 -0.0118
                                           -0.0044 -0.0057  0.0022 -0.0001 -0.0262
                                            0.0004 -0.0003  0.0127 -0.0132
     6. (1.98777) BD ( 1) C   3 - H   6  
                ( 62.91%)   0.7931* C   3 s( 26.08%)p 2.83( 73.87%)d 0.00(  0.05%)
                                           -0.0000  0.5107  0.0040  0.0000 -0.0001
                                            0.2798 -0.0005 -0.0033  0.2616  0.0066
                                            0.0061  0.7693 -0.0098  0.0038  0.0033
                                            0.0102  0.0101  0.0017  0.0155
                ( 37.09%)   0.6090* H   6 s(100.00%)
                                            1.0000  0.0032
     7. (1.99102) BD ( 1) C   3 - H   7  
                ( 62.12%)   0.7882* C   3 s( 25.57%)p 2.91( 74.38%)d 0.00(  0.05%)
                                            0.0000 -0.5057 -0.0025 -0.0014  0.0003
                                            0.8049 -0.0101 -0.0064 -0.2772 -0.0096
                                           -0.0066  0.1372 -0.0001  0.0004  0.0100
                                           -0.0056  0.0017 -0.0167  0.0099
                ( 37.88%)   0.6154* H   7 s(100.00%)
                                           -1.0000 -0.0005
     8. (1.98795) BD ( 1) C   3 - H   8  
                ( 63.40%)   0.7962* C   3 s( 26.25%)p 2.81( 73.71%)d 0.00(  0.05%)
                                           -0.0000  0.5123  0.0025 -0.0002 -0.0002
                                            0.5225 -0.0063 -0.0046  0.2745  0.0047
                                            0.0059 -0.6233  0.0099 -0.0033  0.0065
                                           -0.0158 -0.0086  0.0063  0.0069
                ( 36.60%)   0.6050* H   8 s(100.00%)
                                            1.0000  0.0027
     9. (1.98917) BD ( 1) C   4 - H   9  
                ( 62.40%)   0.7900* C   4 s( 25.86%)p 2.87( 74.09%)d 0.00(  0.05%)
                                           -0.0000  0.5085  0.0056  0.0000  0.0003
                                           -0.4156 -0.0025 -0.0042  0.2134 -0.0114
                                           -0.0029  0.7228 -0.0047  0.0021 -0.0053
                                           -0.0151  0.0077  0.0018  0.0123
                ( 37.60%)   0.6132* H   9 s(100.00%)
                                            1.0000  0.0034
    10. (1.98781) BD ( 1) C   4 - H  10  
                ( 62.61%)   0.7913* C   4 s( 25.54%)p 2.91( 74.41%)d 0.00(  0.05%)
                                            0.0001 -0.5053 -0.0011 -0.0013  0.0004
                                           -0.1581  0.0137  0.0055  0.8477 -0.0088
                                           -0.0008  0.0141 -0.0002 -0.0002  0.0088
                                            0.0001 -0.0006  0.0175  0.0105
                ( 37.39%)   0.6115* H  10 s(100.00%)
                                           -1.0000 -0.0025
    11. (1.98935) BD ( 1) C   4 - H  11  
                ( 62.42%)   0.7900* C   4 s( 25.93%)p 2.85( 74.02%)d 0.00(  0.05%)
                                           -0.0000  0.5092  0.0049  0.0000  0.0002
                                           -0.4596 -0.0013 -0.0041  0.2291 -0.0119
                                           -0.0029 -0.6902  0.0047 -0.0015 -0.0063
                                            0.0161 -0.0078  0.0027  0.0103
                ( 37.58%)   0.6131* H  11 s(100.00%)
                                            1.0000  0.0031
    12. (1.98000) BD ( 1) C   5 - H  12  
                ( 59.14%)   0.7690* C   5 s( 33.77%)p 1.96( 66.17%)d 0.00(  0.06%)
                                            0.0004 -0.5798 -0.0392 -0.0034 -0.0006
                                            0.0528  0.0286 -0.0036  0.8107  0.0286
                                           -0.0036  0.0064  0.0005 -0.0000 -0.0086
                                            0.0002 -0.0002  0.0211  0.0075
                ( 40.86%)   0.6392* H  12 s(100.00%)
                                           -0.9999 -0.0115
    13. (1.99980) CR ( 1) O   1           s(100.00%)p 0.00(  0.00%)
                                            1.0000  0.0003  0.0000  0.0000  0.0000
                                            0.0003 -0.0000 -0.0000  0.0001 -0.0000
                                           -0.0000  0.0000 -0.0000 -0.0000 -0.0000
                                           -0.0000 -0.0000 -0.0000  0.0000
    14. (1.99942) CR ( 1) N   2           s(100.00%)
                                            1.0000  0.0002 -0.0000 -0.0000 -0.0000
                                           -0.0001  0.0000  0.0000  0.0000 -0.0000
                                           -0.0000  0.0001  0.0000  0.0000  0.0000
                                            0.0000 -0.0000  0.0000 -0.0000
    15. (1.99954) CR ( 1) C   3           s(100.00%)p 0.00(  0.00%)
                                            1.0000  0.0000  0.0000  0.0000 -0.0000
                                            0.0000  0.0000 -0.0000  0.0001  0.0000
                                            0.0000 -0.0000  0.0000  0.0000 -0.0000
                                           -0.0000 -0.0000  0.0000  0.0000
    16. (1.99953) CR ( 1) C   4           s(100.00%)
                                            1.0000  0.0000  0.0000  0.0000  0.0000
                                           -0.0001 -0.0000 -0.0000 -0.0001 -0.0000
                                           -0.0000  0.0000  0.0000  0.0000 -0.0000
                                            0.0000  0.0000 -0.0000  0.0000
    17. (1.99949) CR ( 1) C   5           s(100.00%)p 0.00(  0.00%)
                                            1.0000  0.0002  0.0000  0.0000  0.0000
                                            0.0001 -0.0000  0.0000 -0.0003 -0.0000
                                            0.0000 -0.0000 -0.0000 -0.0000  0.0000
                                           -0.0000 -0.0000 -0.0000 -0.0000
    18. (1.98209) LP ( 1) O   1           s( 60.10%)p 0.66( 39.84%)d 0.00(  0.05%)
                                           -0.0004  0.7751  0.0172  0.0010  0.0007
                                            0.5755 -0.0022 -0.0008  0.2591 -0.0048
                                           -0.0017  0.0096 -0.0002 -0.0001 -0.0135
                                           -0.0006 -0.0003 -0.0136  0.0133
    19. (1.83961) LP ( 2) O   1           s(  0.03%)p99.99( 99.73%)d 9.35(  0.24%)
                                            0.0001  0.0148  0.0019 -0.0058  0.0008
                                           -0.4264 -0.0071  0.0011  0.9029  0.0128
                                            0.0004  0.0080  0.0002  0.0000 -0.0327
                                           -0.0001 -0.0009  0.0365  0.0001
    20. (1.64329) LP ( 1) N   2           s(  0.07%)p99.99( 99.92%)d 0.14(  0.01%)
                                            0.0001  0.0270  0.0003  0.0020  0.0007
                                           -0.0101 -0.0000  0.0001  0.0003 -0.0008
                                           -0.0003 -0.9993 -0.0188 -0.0098 -0.0001
                                           -0.0076  0.0066  0.0001 -0.0015
    21. (0.00289) RY*( 1) O   1           s(  0.76%)p99.99( 98.65%)d 0.78(  0.59%)
                                            0.0000  0.0015  0.0781  0.0391  0.0004
                                            0.0062 -0.4576  0.0203 -0.0161  0.8800
                                           -0.0248  0.0005  0.0372  0.0064 -0.0737
                                            0.0027 -0.0045  0.0059  0.0205
    22. (0.00153) RY*( 2) O   1           s(  0.04%)p99.99( 98.49%)d35.96(  1.47%)
                                           -0.0000  0.0001  0.0113  0.0162 -0.0041
                                           -0.0006 -0.0123 -0.0219  0.0004 -0.0488
                                            0.0248  0.0160  0.9884  0.0639  0.0130
                                            0.0880 -0.0824  0.0015  0.0010
    23. (0.00090) RY*( 3) O   1           s( 81.16%)p 0.14( 11.29%)d 0.09(  7.55%)
                                            0.0000  0.0125  0.8861 -0.1235 -0.1052
                                           -0.0442  0.0791  0.3014 -0.0199 -0.0496
                                            0.1048 -0.0004 -0.0034  0.0023 -0.1478
                                           -0.0050  0.0027 -0.2016  0.1138
    24. (0.00015) RY*( 4) O   1           s( 21.14%)p 3.51( 74.23%)d 0.22(  4.63%)
                                            0.0000  0.0058  0.0387  0.0808  0.4510
                                           -0.0173 -0.7431  0.0861  0.0027 -0.3766
                                            0.1971 -0.0008 -0.0341  0.0219  0.1329
                                           -0.0008 -0.0058 -0.1687  0.0117
    25. (0.00006) RY*( 5) O   1           s( 79.44%)p 0.17( 13.25%)d 0.09(  7.31%)
    26. (0.00005) RY*( 6) O   1           s( 27.15%)p 0.24(  6.61%)d 2.44( 66.24%)
    27. (0.00001) RY*( 7) O   1           s(  1.55%)p63.45( 98.12%)d 0.22(  0.34%)
    28. (0.00002) RY*( 8) O   1           s( 12.78%)p 5.66( 72.32%)d 1.17( 14.90%)
    29. (0.00001) RY*( 9) O   1           s(  0.02%)p99.99( 99.98%)d 0.27(  0.01%)
    30. (0.00001) RY*(10) O   1           s( 73.22%)p 0.23( 17.19%)d 0.13(  9.59%)
    31. (0.00000) RY*(11) O   1           s(  0.01%)p98.40(  1.07%)d99.99( 98.92%)
    32. (0.00000) RY*(12) O   1           s(  0.05%)p16.12(  0.76%)d99.99( 99.19%)
    33. (0.00001) RY*(13) O   1           s(  1.11%)p 7.19(  7.98%)d81.83( 90.91%)
    34. (0.00000) RY*(14) O   1           s(  1.48%)p 0.79(  1.16%)d65.90( 97.36%)
    35. (0.00624) RY*( 1) N   2           s(  0.42%)p99.99( 97.23%)d 5.52(  2.34%)
                                            0.0000  0.0007  0.0517  0.0390 -0.0071
                                            0.0002 -0.0175 -0.0108 -0.0005 -0.0112
                                           -0.0033  0.0182 -0.9698  0.1759 -0.0051
                                           -0.1095  0.1050  0.0007  0.0197
    36. (0.00272) RY*( 2) N   2           s( 22.26%)p 3.32( 73.80%)d 0.18(  3.94%)
                                            0.0000  0.0063  0.4464 -0.1503 -0.0275
                                           -0.0034 -0.6485 -0.3950 -0.0009 -0.3964
                                            0.0439  0.0000  0.0324 -0.0352  0.1029
                                           -0.0029 -0.0012  0.1682  0.0235
    37. (0.00151) RY*( 3) N   2           s( 63.10%)p 0.39( 24.30%)d 0.20( 12.60%)
                                            0.0000  0.0053  0.7829  0.1309  0.0293
                                           -0.0022  0.3079  0.1613  0.0021  0.0938
                                            0.3345 -0.0005  0.0391 -0.0021 -0.3258
                                            0.0253  0.0107 -0.0803  0.1124
    38. (0.00106) RY*( 4) N   2           s(  4.80%)p12.66( 60.85%)d 7.15( 34.35%)
                                            0.0000  0.0030  0.1917 -0.0975  0.0424
                                           -0.0025 -0.3810  0.1046  0.0041  0.6705
                                           -0.0512 -0.0004  0.0015 -0.0101  0.3734
                                           -0.0042  0.0072 -0.4515  0.0133
    39. (0.00052) RY*( 5) N   2           s(  7.69%)p 6.76( 52.02%)d 5.24( 40.29%)
                                           -0.0000 -0.0001  0.1450  0.2336 -0.0368
                                            0.0003 -0.1255  0.6271 -0.0005 -0.1509
                                           -0.2643 -0.0031  0.0123  0.1354  0.3240
                                            0.3809  0.1258  0.3329  0.1617
    40. (0.00048) RY*( 6) N   2           s(  0.83%)p20.02( 16.71%)d98.77( 82.45%)
                                           -0.0000 -0.0007  0.0690  0.0598  0.0041
                                            0.0022 -0.0481  0.3389  0.0012 -0.0843
                                           -0.0641  0.0051  0.0161 -0.1961  0.1412
                                           -0.7896 -0.3946  0.1422  0.0721
    41. (0.00032) RY*( 7) N   2           s(  0.84%)p36.77( 30.80%)d81.62( 68.36%)
                                            0.0000  0.0004  0.0709  0.0494 -0.0301
                                            0.0012  0.1294 -0.1113 -0.0013  0.0884
                                           -0.1609  0.0112  0.0263 -0.4943  0.1132
                                           -0.2464  0.7630  0.1524  0.0683
    42. (0.00024) RY*( 8) N   2           s(  7.36%)p 7.60( 55.94%)d 4.99( 36.70%)
                                            0.0000  0.0037  0.1917  0.1758 -0.0770
                                            0.0036  0.3616 -0.5019  0.0012  0.2799
                                           -0.2648 -0.0039  0.0127  0.1676  0.3737
                                            0.0256 -0.2783  0.3649  0.1268
    43. (0.00019) RY*( 9) N   2           s(  0.44%)p99.99( 45.34%)d99.99( 54.22%)
                                           -0.0000  0.0004 -0.0173  0.0025  0.0641
                                            0.0139  0.2836 -0.0195 -0.0043 -0.3613
                                            0.4917  0.0005 -0.0044 -0.0059  0.6764
                                            0.0099  0.0584 -0.2796 -0.0547
    44. (0.00007) RY*(10) N   2           s(  3.43%)p16.92( 57.96%)d11.27( 38.62%)
    45. (0.00002) RY*(11) N   2           s( 86.54%)p 0.11(  9.73%)d 0.04(  3.73%)
    46. (0.00000) RY*(12) N   2           s( 98.04%)p 0.01(  1.04%)d 0.01(  0.93%)
    47. (0.00000) RY*(13) N   2           s(  0.01%)p99.99( 69.14%)d99.99( 30.85%)
    48. (0.00001) RY*(14) N   2           s(  4.27%)p 1.21(  5.17%)d21.21( 90.55%)
    49. (0.00477) RY*( 1) C   3           s(  4.16%)p22.08( 91.80%)d 0.97(  4.04%)
                                           -0.0000  0.0016  0.1940  0.0620  0.0100
                                           -0.0106 -0.8656 -0.0553 -0.0145  0.3834
                                            0.0520 -0.0011 -0.1150  0.0492  0.1852
                                            0.0086  0.0506  0.0589  0.0008
    50. (0.00244) RY*( 2) C   3           s(  0.51%)p99.99( 59.58%)d77.58( 39.90%)
                                           -0.0000  0.0002  0.0669  0.0251  0.0059
                                            0.0043  0.1614  0.0134 -0.0025  0.0403
                                           -0.0016 -0.0207 -0.5811  0.4794 -0.0608
                                            0.0608  0.6241 -0.0127  0.0449
    51. (0.00136) RY*( 3) C   3           s( 22.84%)p 3.00( 68.57%)d 0.38(  8.59%)
                                           -0.0000  0.0066  0.4767  0.0330  0.0054
                                            0.0098  0.3595  0.0153 -0.0410  0.7181
                                            0.1674  0.0003  0.0530 -0.0889 -0.2746
                                            0.0032 -0.1003 -0.0107 -0.0180
    52. (0.00038) RY*( 4) C   3           s( 51.20%)p 0.43( 21.91%)d 0.53( 26.89%)
                                            0.0000 -0.0015  0.5382 -0.4715 -0.0045
                                           -0.0144  0.0262 -0.3385  0.0099 -0.2716
                                            0.1524 -0.0040  0.0334 -0.0731  0.2803
                                           -0.0152  0.0755 -0.3949  0.1689
    53. (0.00013) RY*( 5) C   3           s( 21.89%)p 1.84( 40.34%)d 1.73( 37.77%)
                                           -0.0000  0.0006 -0.1457  0.4362 -0.0863
                                           -0.0094  0.2184 -0.3688 -0.0068  0.2165
                                            0.0396  0.0014  0.3282  0.2518  0.5953
                                           -0.0621  0.1078 -0.0737  0.0488
    54. (0.00005) RY*( 6) C   3           s(  3.30%)p25.16( 83.15%)d 4.10( 13.55%)
    55. (0.00005) RY*( 7) C   3           s( 29.08%)p 1.33( 38.62%)d 1.11( 32.30%)
    56. (0.00004) RY*( 8) C   3           s(  8.95%)p 3.35( 29.96%)d 6.83( 61.09%)
    57. (0.00000) RY*( 9) C   3           s( 99.11%)p 0.00(  0.32%)d 0.01(  0.57%)
    58. (0.00001) RY*(10) C   3           s(  4.26%)p22.16( 94.45%)d 0.30(  1.29%)
    59. (0.00001) RY*(11) C   3           s( 21.54%)p 1.89( 40.79%)d 1.75( 37.68%)
    60. (0.00000) RY*(12) C   3           s(  0.53%)p35.31( 18.71%)d99.99( 80.77%)
    61. (0.00000) RY*(13) C   3           s( 31.68%)p 0.35( 11.07%)d 1.81( 57.25%)
    62. (0.00000) RY*(14) C   3           s(  0.92%)p 1.11(  1.02%)d99.99( 98.06%)
    63. (0.00242) RY*( 1) C   4           s(  0.66%)p99.99( 84.49%)d22.40( 14.85%)
                                            0.0000 -0.0018  0.0570 -0.0570 -0.0108
                                            0.0124  0.4633 -0.0419 -0.0196 -0.7920
                                            0.0115  0.0008 -0.0156 -0.0161 -0.1733
                                            0.0288  0.0128  0.3426  0.0100
    64. (0.00150) RY*( 2) C   4           s(  0.25%)p87.17( 21.99%)d99.99( 77.76%)
                                            0.0000  0.0006  0.0492  0.0097 -0.0018
                                            0.0036 -0.0500  0.0179  0.0009 -0.0652
                                            0.0020 -0.0170 -0.0680  0.4560 -0.0087
                                           -0.8304 -0.2929  0.0056  0.0458
    65. (0.00085) RY*( 3) C   4           s( 14.45%)p 5.85( 84.59%)d 0.07(  0.96%)
                                           -0.0000  0.0080  0.2993  0.2341 -0.0095
                                            0.0395 -0.7704  0.0975  0.0211 -0.4691
                                           -0.1336  0.0001  0.0396 -0.0365 -0.0211
                                            0.0747  0.0221 -0.0555  0.0041
    66. (0.00025) RY*( 4) C   4           s( 76.01%)p 0.14( 10.66%)d 0.18( 13.33%)
                                           -0.0000 -0.0007 -0.5494  0.6769  0.0059
                                           -0.0046  0.0568  0.0813  0.0056 -0.1006
                                            0.2101  0.0018  0.1999  0.0499 -0.2687
                                           -0.0099 -0.0049 -0.2219 -0.1086
    67. (0.00017) RY*( 5) C   4           s(  3.43%)p27.70( 95.07%)d 0.44(  1.50%)
                                            0.0000  0.0007  0.1380 -0.1146 -0.0463
                                            0.0019  0.0155 -0.0763 -0.0010  0.0432
                                            0.0132  0.0049  0.9684  0.0698  0.0466
                                           -0.0458  0.0203  0.0990  0.0213
    68. (0.00009) RY*( 6) C   4           s( 32.95%)p 1.62( 53.29%)d 0.42( 13.76%)
    69. (0.00004) RY*( 7) C   4           s( 13.97%)p 2.81( 39.28%)d 3.35( 46.75%)
    70. (0.00001) RY*( 8) C   4           s(  7.26%)p10.09( 73.23%)d 2.69( 19.51%)
    71. (0.00001) RY*( 9) C   4           s( 45.84%)p 0.99( 45.54%)d 0.19(  8.62%)
    72. (0.00000) RY*(10) C   4           s( 88.69%)p 0.06(  5.73%)d 0.06(  5.58%)
    73. (0.00000) RY*(11) C   4           s(  0.15%)p99.99( 76.29%)d99.99( 23.56%)
    74. (0.00001) RY*(12) C   4           s(  0.02%)p99.99(  2.14%)d99.99( 97.84%)
    75. (0.00001) RY*(13) C   4           s( 13.59%)p 0.26(  3.60%)d 6.09( 82.81%)
    76. (0.00001) RY*(14) C   4           s(  2.69%)p 1.63(  4.38%)d34.61( 92.94%)
    77. (0.01331) RY*( 1) C   5           s( 10.61%)p 8.01( 84.99%)d 0.41(  4.40%)
                                            0.0000  0.0415  0.3121 -0.0724 -0.0407
                                            0.0803  0.8523  0.0116 -0.0087  0.3384
                                           -0.0440  0.0017  0.0207 -0.0034 -0.0778
                                           -0.0054 -0.0023  0.1942 -0.0142
    78. (0.00586) RY*( 2) C   5           s( 23.57%)p 1.60( 37.66%)d 1.65( 38.77%)
                                           -0.0000  0.0170  0.4843 -0.0025  0.0300
                                           -0.0135 -0.2342 -0.2552  0.0418  0.5025
                                           -0.0447 -0.0005 -0.0124  0.0037  0.4496
                                            0.0139  0.0097 -0.4304 -0.0092
    79. (0.00348) RY*( 3) C   5           s(  0.01%)p 1.00( 11.46%)d 7.73( 88.53%)
                                           -0.0000 -0.0003 -0.0017  0.0068 -0.0066
                                           -0.0007  0.0000  0.0002  0.0008 -0.0053
                                           -0.0095  0.0369  0.0583 -0.3312  0.0187
                                           -0.9389  0.0471 -0.0212 -0.0271
    80. (0.00267) RY*( 4) C   5           s( 29.80%)p 1.71( 50.95%)d 0.65( 19.25%)
                                            0.0000 -0.0062  0.5442 -0.0421  0.0064
                                            0.0386  0.1569  0.0713  0.0486 -0.6847
                                            0.0833 -0.0003  0.0123  0.0034 -0.1024
                                            0.0097  0.0043 -0.4260 -0.0212
    81. (0.00067) RY*( 5) C   5           s( 29.00%)p 1.34( 38.81%)d 1.11( 32.19%)
                                            0.0000  0.0046  0.5140  0.1049  0.1218
                                            0.0098 -0.3885  0.4269  0.0220  0.2235
                                           -0.0459 -0.0007  0.0458 -0.0122 -0.4656
                                           -0.0121 -0.0086  0.3235  0.0155
    82. (0.00027) RY*( 6) C   5           s( 10.57%)p 8.23( 86.97%)d 0.23(  2.45%)
                                            0.0000  0.0014 -0.0430  0.3082 -0.0944
                                            0.0028  0.0297  0.0033 -0.0000  0.0057
                                           -0.0150 -0.0251  0.9316  0.0043  0.0261
                                            0.0534 -0.1244 -0.0679  0.0302
    83. (0.00018) RY*( 7) C   5           s( 81.36%)p 0.16( 13.38%)d 0.06(  5.26%)
                                            0.0000  0.0078 -0.0215  0.8342 -0.3424
                                            0.0070  0.0886  0.1083  0.0055  0.0161
                                           -0.0918  0.0084 -0.3219 -0.0411  0.0038
                                            0.0056  0.0712 -0.1257  0.1781
    84. (0.00005) RY*( 8) C   5           s( 82.25%)p 0.08(  6.41%)d 0.14( 11.34%)
    85. (0.00001) RY*( 9) C   5           s(  2.56%)p27.39( 70.23%)d10.61( 27.20%)
    86. (0.00002) RY*(10) C   5           s( 13.99%)p 1.27( 17.80%)d 4.87( 68.21%)
    87. (0.00000) RY*(11) C   5           s(  1.01%)p84.86( 85.63%)d13.24( 13.36%)
    88. (0.00001) RY*(12) C   5           s(  1.20%)p 2.91(  3.50%)d79.22( 95.29%)
    89. (0.00000) RY*(13) C   5           s(  3.95%)p23.40( 92.54%)d 0.89(  3.51%)
    90. (0.00001) RY*(14) C   5           s(  9.83%)p 0.04(  0.35%)d 9.14( 89.82%)
    91. (0.00116) RY*( 1) H   6           s(100.00%)
                                           -0.0032  1.0000
    92. (0.00046) RY*( 1) H   7           s(100.00%)
                                           -0.0005  1.0000
    93. (0.00112) RY*( 1) H   8           s(100.00%)
                                           -0.0027  1.0000
    94. (0.00106) RY*( 1) H   9           s(100.00%)
                                           -0.0034  1.0000
    95. (0.00125) RY*( 1) H  10           s(100.00%)
                                           -0.0025  1.0000
    96. (0.00099) RY*( 1) H  11           s(100.00%)
                                           -0.0031  1.0000
    97. (0.00284) RY*( 1) H  12           s(100.00%)
                                           -0.0115  0.9999
    98. (0.31629) BD*( 1) O   1 - C   5  
                ( 30.66%)   0.5537* O   1 s(  0.32%)p99.99( 99.38%)d 0.93(  0.30%)
                                            0.0000 -0.0568  0.0032  0.0004  0.0000
                                            0.0728 -0.0011 -0.0001  0.0441 -0.0009
                                           -0.0000 -0.9931  0.0137 -0.0015 -0.0046
                                            0.0492  0.0231 -0.0036  0.0043
                ( 69.34%)  -0.8327* C   5 s(  0.27%)p99.99( 99.57%)d 0.58(  0.16%)
                                           -0.0000 -0.0517  0.0051  0.0006  0.0001
                                           -0.0516  0.0070  0.0010 -0.0259  0.0017
                                            0.0007 -0.9956 -0.0274 -0.0212 -0.0013
                                           -0.0343 -0.0195 -0.0010 -0.0001
    99. (0.00850) BD*( 2) O   1 - C   5  
                ( 35.45%)   0.5954* O   1 s( 39.63%)p 1.51( 59.96%)d 0.01(  0.41%)
                                            0.0000  0.6287 -0.0328 -0.0016 -0.0015
                                           -0.6904  0.0104  0.0016 -0.3354  0.0100
                                           -0.0015 -0.1016  0.0015 -0.0001  0.0420
                                            0.0061  0.0027  0.0366 -0.0303
                ( 64.55%)  -0.8034* C   5 s( 33.73%)p 1.96( 66.18%)d 0.00(  0.09%)
                                           -0.0001  0.5776 -0.0609 -0.0049 -0.0009
                                            0.7188 -0.0657 -0.0039  0.3667 -0.0147
                                           -0.0075 -0.0774 -0.0037 -0.0019  0.0232
                                           -0.0024 -0.0015  0.0135 -0.0119
   100. (0.02451) BD*( 1) N   2 - C   3  
                ( 36.98%)   0.6081* N   2 s( 31.41%)p 2.18( 68.57%)d 0.00(  0.02%)
                                            0.0001 -0.5605  0.0017 -0.0022  0.0001
                                            0.0022 -0.0053 -0.0009 -0.8277  0.0104
                                            0.0109 -0.0154 -0.0001  0.0003 -0.0007
                                           -0.0000 -0.0014  0.0080  0.0113
                ( 63.02%)  -0.7938* C   3 s( 22.13%)p 3.51( 77.77%)d 0.00(  0.10%)
                                           -0.0001 -0.4700  0.0195  0.0023 -0.0009
                                            0.0076  0.0065 -0.0001  0.8810  0.0377
                                            0.0007  0.0089  0.0031  0.0008 -0.0025
                                           -0.0002 -0.0009  0.0276  0.0168
   101. (0.01952) BD*( 1) N   2 - C   4  
                ( 37.29%)   0.6107* N   2 s( 32.82%)p 2.05( 67.16%)d 0.00(  0.02%)
                                           -0.0002  0.5728 -0.0049 -0.0018  0.0002
                                           -0.7202  0.0064  0.0037 -0.3903  0.0009
                                            0.0049  0.0227  0.0001 -0.0006  0.0071
                                           -0.0012 -0.0009  0.0043 -0.0112
                ( 62.71%)  -0.7919* C   4 s( 22.71%)p 3.40( 77.19%)d 0.00(  0.10%)
                                            0.0001  0.4760 -0.0222 -0.0024 -0.0004
                                            0.7669  0.0328 -0.0027  0.4264  0.0194
                                           -0.0021 -0.0189 -0.0024 -0.0000  0.0232
                                           -0.0010 -0.0005  0.0151 -0.0163
   102. (0.08218) BD*( 1) N   2 - C   5  
                ( 35.83%)   0.5986* N   2 s( 35.65%)p 1.80( 64.32%)d 0.00(  0.02%)
                                            0.0001 -0.5971  0.0016  0.0003  0.0002
                                           -0.6935  0.0056 -0.0040  0.4026 -0.0079
                                            0.0007 -0.0090 -0.0004  0.0004  0.0084
                                           -0.0010  0.0006 -0.0060  0.0108
                ( 64.17%)  -0.8011* C   5 s( 32.50%)p 2.07( 67.40%)d 0.00(  0.10%)
                                           -0.0001 -0.5700  0.0079  0.0027  0.0012
                                            0.6849 -0.0429 -0.0038 -0.4504  0.0118
                                            0.0044  0.0057 -0.0022  0.0001  0.0262
                                           -0.0004  0.0003 -0.0127  0.0132
   103. (0.01421) BD*( 1) C   3 - H   6  
                ( 37.09%)   0.6090* C   3 s( 26.08%)p 2.83( 73.87%)d 0.00(  0.05%)
                                            0.0000 -0.5107 -0.0040 -0.0000  0.0001
                                           -0.2798  0.0005  0.0033 -0.2616 -0.0066
                                           -0.0061 -0.7693  0.0098 -0.0038 -0.0033
                                           -0.0102 -0.0101 -0.0017 -0.0155
                ( 62.91%)  -0.7931* H   6 s(100.00%)
                                           -1.0000 -0.0032
[...]
   A17        2.13731   0.00001   0.00000   0.00007   0.00007   2.13739
   A18        1.95273   0.00000   0.00000  -0.00002  -0.00002   1.95271
    D1        1.04907   0.00000   0.00000   0.00027   0.00027   1.04934
    D2       -1.04955  -0.00000   0.00000   0.00021   0.00021  -1.04934
    D3        3.14145  -0.00000   0.00000   0.00014   0.00014  -3.14159
    D4       -2.09287   0.00001   0.00000   0.00062   0.00062  -2.09225
    D5        2.09169  -0.00000   0.00000   0.00056   0.00056   2.09225
    D6       -0.00049  -0.00000   0.00000   0.00049   0.00049   0.00000
    D7       -1.05256   0.00000   0.00000   0.00125   0.00125  -1.05131
    D8        3.14021   0.00001   0.00000   0.00138   0.00138  -3.14159
    D9        1.05001   0.00001   0.00000   0.00130   0.00130   1.05131
   D10        2.08939  -0.00000   0.00000   0.00090   0.00090   2.09028
   D11       -0.00102   0.00000   0.00000   0.00102   0.00102   0.00000
   D12       -2.09123   0.00000   0.00000   0.00095   0.00095  -2.09028
   D13        0.00007   0.00000   0.00000  -0.00007  -0.00007  -0.00000
   D14       -3.14157   0.00000   0.00000  -0.00003  -0.00003   3.14159
   D15        3.14129   0.00000   0.00000   0.00030   0.00030  -3.14159
   D16       -0.00034   0.00000   0.00000   0.00034   0.00034   0.00000
         Item               Value     Threshold  Converged?
 Maximum Force            0.000033     0.000450     YES
 RMS     Force            0.000009     0.000300     YES
 Maximum Displacement     0.001950     0.001800     NO 
 RMS     Displacement     0.000597     0.001200     YES
 Predicted change in Energy=-2.319798D-08
                           ----------------------------
                           ! Non-Optimized Parameters !
                           ! (Angstroms and Degrees)  !
 --------------------------                            --------------------------
 ! Name  Definition              Value          Derivative Info.                !
 --------------------------------------------------------------------------------
 ! R1    R(1,5)                  1.2333         -DE/DX =    0.0                 !
 ! R2    R(2,3)                  1.4542         -DE/DX =    0.0                 !
 ! R3    R(2,4)                  1.4516         -DE/DX =    0.0                 !
 ! R4    R(2,5)                  1.3714         -DE/DX =    0.0                 !
 ! R5    R(3,6)                  1.106          -DE/DX =    0.0                 !
 ! R6    R(3,7)                  1.106          -DE/DX =    0.0                 !
 ! R7    R(3,8)                  1.1001         -DE/DX =    0.0                 !
 ! R8    R(4,9)                  1.1066         -DE/DX =    0.0                 !
 ! R9    R(4,10)                 1.1024         -DE/DX =    0.0                 !
 ! R10   R(4,11)                 1.1066         -DE/DX =    0.0                 !
 ! R11   R(5,12)                 1.1168         -DE/DX =    0.0                 !
 ! A1    A(3,2,4)              117.814          -DE/DX =    0.0                 !
 ! A2    A(3,2,5)              120.3626         -DE/DX =    0.0                 !
 ! A3    A(4,2,5)              121.8233         -DE/DX =    0.0                 !
 ! A4    A(2,3,6)              110.5329         -DE/DX =    0.0                 !
 ! A5    A(2,3,7)              110.5329         -DE/DX =    0.0                 !
 ! A6    A(2,3,8)              108.069          -DE/DX =    0.0                 !
 ! A7    A(6,3,7)              108.5857         -DE/DX =    0.0                 !
 ! A8    A(6,3,8)              109.5543         -DE/DX =    0.0                 !
 ! A9    A(7,3,8)              109.5543         -DE/DX =    0.0                 !
 ! A10   A(2,4,9)              110.9292         -DE/DX =    0.0                 !
 ! A11   A(2,4,10)             109.4615         -DE/DX =    0.0                 !
 ! A12   A(2,4,11)             110.9292         -DE/DX =    0.0                 !
 ! A13   A(9,4,10)             108.5525         -DE/DX =    0.0                 !
 ! A14   A(9,4,11)             108.3487         -DE/DX =    0.0                 !
 ! A15   A(10,4,11)            108.5525         -DE/DX =    0.0                 !
 ! A16   A(1,5,2)              125.6544         -DE/DX =    0.0                 !
 ! A17   A(1,5,12)             122.4633         -DE/DX =    0.0                 !
 ! A18   A(2,5,12)             111.8822         -DE/DX =    0.0                 !
 ! D1    D(4,2,3,6)             60.123          -DE/DX =    0.0                 !
 ! D2    D(4,2,3,7)            -60.123          -DE/DX =    0.0                 !
 ! D3    D(4,2,3,8)           -180.0            -DE/DX =    0.0                 !
 ! D4    D(5,2,3,6)           -119.877          -DE/DX =    0.0                 !
 ! D5    D(5,2,3,7)            119.8771         -DE/DX =    0.0                 !
 ! D6    D(5,2,3,8)              0.0            -DE/DX =    0.0                 !
 ! D7    D(3,2,4,9)            -60.2357         -DE/DX =    0.0                 !
 ! D8    D(3,2,4,10)          -179.9999         -DE/DX =    0.0                 !
 ! D9    D(3,2,4,11)            60.2358         -DE/DX =    0.0                 !
 ! D10   D(5,2,4,9)            119.7643         -DE/DX =    0.0                 !
 ! D11   D(5,2,4,10)             0.0            -DE/DX =    0.0                 !
 ! D12   D(5,2,4,11)          -119.7642         -DE/DX =    0.0                 !
 ! D13   D(3,2,5,1)              0.0            -DE/DX =    0.0                 !
 ! D14   D(3,2,5,12)           180.0            -DE/DX =    0.0                 !
 ! D15   D(4,2,5,1)           -180.0            -DE/DX =    0.0                 !
 ! D16   D(4,2,5,12)             0.0            -DE/DX =    0.0                 !
 --------------------------------------------------------------------------------
 GradGradGradGradGradGradGradGradGradGradGradGradGradGradGradGradGradGrad


 ----------------------------------------------------------------------

 Electric dipole moment (input orientation):
 (Debye = 10**-18 statcoulomb cm , SI units = C m)
                  (au)            (Debye)         (10**-30 SI)
   Tot        0.164764D+01      0.418789D+01      0.139693D+02
   x         -0.163115D+01     -0.414596D+01     -0.138294D+02
   y         -0.228414D+00     -0.580571D+00     -0.193658D+01
   z         -0.437145D-01     -0.111111D+00     -0.370627D+00

 Dipole polarizability, Alpha (input orientation).
 (esu units = cm**3 , SI units = C**2 m**2 J**-1)
 Alpha(0;0):
               (au)            (10**-24 esu)      (10**-40 SI)
   iso        0.507639D+02      0.752244D+01      0.836984D+01
   aniso      0.235144D+02      0.348447D+01      0.387700D+01
   xx         0.639800D+02      0.948086D+01      0.105489D+02
   yx        -0.412687D+00     -0.611539D-01     -0.680429D-01
   yy         0.513989D+02      0.761653D+01      0.847453D+01
   zx         0.539386D+00      0.799288D-01      0.889327D-01
   zy         0.623638D+00      0.924136D-01      0.102824D+00
   zz         0.369130D+02      0.546994D+01      0.608612D+01

 ----------------------------------------------------------------------

 Dipole orientation:
     8          0.49323877         -0.32744667         -3.52235791
     7          0.44656509          0.14968452          0.83189502
     6          0.17549424          2.88344885          0.75841549
     6          0.56598482         -1.05900346          3.29147680
     6          0.58128969         -1.21295660         -1.36828284
     1          1.78909001          3.80584902          1.71425054
     1         -1.58864490          3.47102088          1.71282865
     1          0.11771064          3.47252778         -1.23439051
     1          2.20123877         -0.35753826          4.39003621
     1          0.76744819         -3.11766167          3.04422949
     1         -1.17361167         -0.68807470          4.39104850
     1          0.78636524         -3.28113730         -1.00133402

 Electric dipole moment (dipole orientation):
 (Debye = 10**-18 statcoulomb cm , SI units = C m)
                  (au)            (Debye)         (10**-30 SI)
   Tot        0.164764D+01      0.418789D+01      0.139693D+02
   x          0.000000D+00      0.000000D+00      0.000000D+00
   y          0.000000D+00      0.000000D+00      0.000000D+00
   z          0.164764D+01      0.418789D+01      0.139693D+02

 Dipole polarizability, Alpha (dipole orientation).
 (esu units = cm**3 , SI units = C**2 m**2 J**-1)
 Alpha(0;0):
               (au)            (10**-24 esu)      (10**-40 SI)
   iso        0.507639D+02      0.752244D+01      0.836984D+01
   aniso      0.235144D+02      0.348447D+01      0.387700D+01
   xx         0.370200D+02      0.548580D+01      0.610377D+01
   yx        -0.146428D+01     -0.216984D+00     -0.241427D+00
   yy         0.516330D+02      0.765122D+01      0.851314D+01
   zx        -0.204741D+00     -0.303395D-01     -0.337572D-01
   zy         0.210147D+01      0.311406D+00      0.346485D+00
   zz         0.636388D+02      0.943030D+01      0.104926D+02

 ----------------------------------------------------------------------
 1\1\GINC-DIDO\Freq\RPBEPBE\6-31+G(d)\C3H7N1O1\GRTE2001\13-Jan-2022\0\\
 #N Geom=AllCheck Guess=TCheck SCRF=Check GenChk RPBEPBE/6-31+G(d) Freq
 \\DMF\\0,1\O,1.8679480562,0.0517469615,0.2838296103\N,-0.4485843269,-0
 .0166984655,0.2332474485\C,-0.6130695508,1.4270009222,0.2928207391\C,-
 1.6473630329,-0.8330264696,0.1726068332\C,0.8052199111,-0.57218651,0.2
 347532779\H,-1.1884250326,1.7149741859,1.1923981806\H,-1.1505649854,1.
 7933902749,-0.6016708098\H,0.3871796539,1.8830778713,0.3337429904\H,-2
 .2810837436,-0.671744937,1.06531883\H,-1.3649720832,-1.8978063202,0.13
 05966583\H,-2.2448294627,-0.5914963805,-0.7269583769\H,0.7665435968,-1
 .687233133,0.1853136185\\Version=ES64L-G16RevA.03\State=1-A\HF=-248.22
 57919\RMSD=2.051e-09\RMSF=1.298e-05\ZeroPoint=0.0998752\Thermal=0.1060
 657\Dipole=-1.6311462,-0.2284143,-0.0437145\DipoleDeriv=-1.4331559,-0.
 0667117,-0.0250433,-0.4817358,-0.5392113,-0.0178138,-0.0431498,-0.0092
 855,-0.3590896,-1.1657134,0.0922497,-0.0143371,0.3584735,-0.5759203,-0
 .0058614,-0.0027379,-0.0115428,-0.270627,0.0008448,-0.0928195,-0.01009
 67,-0.2241002,0.4513554,0.0021919,-0.015855,0.0049251,0.2925425,0.5308
 221,0.1676375,0.0118611,0.2621054,0.1669989,-0.0005685,0.0160766,-0.00
 24553,0.3014245,2.0899203,-0.106268,0.0365771,0.0377638,0.7232343,0.02
 85639,0.042799,0.025634,0.0876059,0.0108162,0.0855626,0.0999939,0.0500
 745,-0.0105411,0.0103253,0.1130604,-0.075391,-0.0834164,0.0192671,0.09
 04041,-0.0881278,0.0598219,-0.01711,-0.0018317,-0.1041114,0.0853339,-0
 .0855014,0.0412215,-0.117303,-0.0064082,-0.0144029,0.0576367,-0.002171
 8,-0.0018822,-0.0042897,0.1000643,-0.098294,-0.0413314,0.0555831,0.003
 5763,0.0639156,-0.0619744,0.1439916,-0.0106821,-0.0842358,0.0581824,0.
 093474,0.0035038,-0.0261828,-0.1035896,-0.0093722,-0.0018136,-0.006901
 1,0.093921,-0.0899478,-0.0367697,-0.0593644,0.0137746,0.0564604,0.0752
 996,-0.1434967,0.0220686,-0.0847771,0.0360368,-0.0681247,-0.0041415,-0
 .0391683,-0.273229,-0.0167869,-0.0028808,-0.017414,0.092089\Polar=63.9
 800192,-0.4126868,51.3988724,0.539386,0.6236378,36.9129573\Quadrupole=
 -3.8761484,3.2465205,0.6296279,-0.3830351,-0.1090844,0.1068467\PG=C01 
 [X(C3H7N1O1)]\NImag=0\\0.58638389,0.28647281,0.24867398,0.02396023,0.0
 1547737,0.03017883,-0.08655033,-0.00777070,-0.00241968,0.68766731,-0.0
 1325648,0.02951146,0.00037559,-0.02745242,0.60401631,-0.00265852,0.000
 48804,0.01474128,0.01087393,0.02132533,0.10403960,-0.00065191,-0.00037
 913,0.00001933,-0.10199481,0.01806084,-0.00002483,0.58813571,-0.010438
 78,-0.00461162,-0.00031527,0.00680676,-0.21044281,-0.00631007,0.013170
 37,0.46008964,-0.00042181,-0.00011231,-0.00235234,-0.00051196,-0.00606
 296,-0.06286806,0.00161413,-0.00301825,0.53575644,0.00212695,0.0038796
 4,0.00001837,-0.18399963,-0.06195793,-0.00535209,0.00430320,-0.0010668
 8,0.00008618,0.50348540,0.01054199,0.00087802,-0.00016718,-0.05107904,
 -0.13980479,-0.00473072,-0.02856481,-0.02191882,-0.00145037,-0.0529432
 7,0.54688204,0.00031486,-0.00029696,0.00948313,-0.00489768,-0.00496789
 ,-0.05604780,-0.00111465,-0.00088057,-0.00248627,-0.00295971,-0.000515
 75,0.53351426,-0.48629313,-0.24786087,-0.01950149,-0.25924466,0.072472
 20,-0.00147001,0.00253499,0.02759762,0.00128017,-0.03815250,-0.0084148
 8,-0.00092577,0.82457026,-0.25168755,-0.26366378,-0.01389029,0.0930539
 1,-0.17188813,-0.00409071,0.03452199,-0.02360370,-0.00028011,-0.016502
 63,0.01355032,0.00076619,0.15304308,0.71779637,-0.01967015,-0.01381259
 ,-0.06500541,-0.00055736,-0.00452200,-0.03475630,0.00157722,-0.0004228
 6,-0.00086255,-0.00127507,0.00094115,-0.01165479,0.02030502,0.02738844
 ,0.16411347,-0.00039192,0.00081439,-0.00088805,-0.00314531,0.00499872,
 0.00083771,-0.11307626,0.02801294,0.10581277,0.00083530,-0.00065024,-0
 .00158828,0.00086230,-0.00027256,0.00148790,0.11785307,0.00193928,0.00
 246750,-0.00053562,0.02386090,-0.02347088,-0.02705211,0.02607934,-0.05
 482739,-0.04296192,0.00280295,0.00184484,-0.00132288,-0.00676588,-0.00
 344900,-0.00284156,-0.03702975,0.07106990,0.00069950,0.00031817,-0.000
 04475,0.00042447,-0.00507800,0.00622621,0.10654245,-0.04584910,-0.2144
 2757,0.00016622,0.00053589,0.00074305,-0.00254607,0.00115551,-0.000822
 06,-0.11669267,0.05308248,0.22827712,-0.00040492,0.00073766,0.00094160
 ,-0.00313153,0.00491825,-0.00085283,-0.10440107,0.03468270,-0.09857862
 ,0.00077534,-0.00076791,0.00152759,0.00083466,-0.00008943,-0.00143879,
 0.00782170,-0.00560356,0.01403495,0.10835114,0.00196780,0.00242405,0.0
 0083239,0.02271646,-0.02609694,0.02520163,0.03294742,-0.06388037,0.057
 76226,0.00275545,0.00176287,0.00152758,-0.00707200,-0.00355833,0.00231
 304,-0.00416762,0.00312014,-0.00485787,-0.04428924,0.08165293,-0.00054
 606,-0.00006907,0.00001047,0.00115972,0.00246636,0.00882853,-0.0994682
 7,0.06072024,-0.21399747,0.00007603,-0.00048099,0.00088325,0.00200808,
 -0.00140499,-0.00067505,-0.01323183,0.00679088,-0.02132210,0.10826313,
 -0.06804629,0.22715113,-0.00201722,0.00100943,0.00003751,0.00562666,-0
 .00036720,0.00013684,-0.26728693,-0.10344215,-0.00914481,0.00003009,0.
 00034211,0.00001707,0.00077858,0.00191400,0.00007307,-0.01111430,-0.00
 467128,-0.00188497,-0.01019853,-0.00430308,0.00099309,0.28472856,0.002
 06551,0.00306018,0.00025203,-0.03240597,-0.02095125,-0.00152670,-0.091
 64931,-0.08811249,-0.00371163,0.00338309,-0.00543918,-0.00016366,-0.00
 612444,-0.00240119,-0.00028878,0.00720185,0.00371669,0.00145468,0.0092
 8805,0.00484596,-0.00083036,0.10947489,0.10563194,0.00008463,0.0002306
 8,-0.00170370,-0.00126312,-0.00084998,-0.00165463,-0.00862578,-0.00395
 912,-0.04759208,0.00014971,-0.00022375,-0.00015055,-0.00028041,-0.0001
 2383,0.00130362,0.02345265,0.01178597,0.00216858,-0.02323472,-0.011698
 90,0.00011260,0.00980384,0.00490412,0.04638953,-0.00298431,-0.00011300
 ,-0.00188604,-0.02948016,0.00026974,0.01877535,0.00048392,0.00245250,0
 .00011163,-0.11509248,0.02327891,0.10708080,0.00263398,-0.00490252,0.0
 0444533,0.00039976,-0.00103784,-0.00041352,0.00009582,-0.00042235,-0.0
 0001132,-0.00007606,0.00018415,-0.00026483,0.13790524,-0.00183930,0.00
 017584,-0.00064997,-0.01811965,0.00138069,0.01467747,-0.00096002,0.002
 40792,0.00192698,0.02520545,-0.05404319,-0.03479709,0.00228538,-0.0027
 7297,0.00153997,0.00074379,0.00014346,-0.00088692,0.00007563,-0.000169
 86,-0.00012895,0.00007180,0.00016813,-0.00015049,-0.01920335,0.0537025
 0,0.00047055,0.00036549,-0.00038054,0.00122414,0.00238478,0.00938737,-
 0.00043002,-0.00012799,0.00080342,0.10983465,-0.03475114,-0.21318465,-
 0.00246302,0.00037625,-0.00025683,0.00049319,0.00084113,-0.00026317,-0
 .00007385,-0.00009055,-0.00062150,-0.00005912,0.00013358,0.00019308,-0
 .12124362,0.03606956,0.22588992,0.00098232,0.00118129,0.00007477,0.007
 16471,-0.03006884,-0.00116036,-0.00461952,-0.00074673,-0.00013952,-0.0
 6737019,0.07316886,0.00283449,-0.00091463,-0.00497245,-0.00024357,-0.0
 0001947,0.00004797,-0.00020137,-0.00003065,0.00004723,0.00019450,-0.00
 010254,-0.00153395,-0.00007929,-0.00399068,0.01561932,-0.00142530,0.07
 350039,-0.00122506,0.00055039,0.00000941,0.00071627,-0.02190826,-0.000
 87302,-0.00473823,-0.00007732,-0.00012113,0.06403619,-0.28195919,-0.00
 931056,0.00580385,-0.00082065,0.00006463,0.00014451,0.00024072,-0.0000
 2135,0.00013602,0.00027284,0.00002722,0.00069370,-0.00125812,-0.000063
 21,0.00139025,-0.00281136,0.00034157,-0.06807931,0.31159520,-0.0000293
 7,0.00005942,-0.00021152,0.00021469,-0.00149774,-0.00187239,-0.0003084
 4,-0.00002937,0.00031094,0.00242831,-0.00913138,-0.04576559,0.00022957
 ,-0.00016238,0.00045497,-0.00007912,0.00038204,0.00025867,0.00007975,-
 0.00037862,0.00023983,0.00001824,-0.00010850,0.00050345,0.00594034,-0.
 02464395,0.00018424,-0.00244669,0.01064545,0.04369537,-0.00303154,-0.0
 0025706,0.00175881,-0.02857276,0.00213757,-0.02018875,0.00047304,0.002
 44451,0.00009414,-0.10661238,0.03085564,-0.10049473,0.00270652,-0.0044
 7844,-0.00473117,0.00009211,-0.00042583,0.00000356,0.00040089,-0.00103
 867,0.00035141,-0.00008931,0.00016724,0.00026967,0.00998433,-0.0037176
 1,0.01373712,-0.00383187,0.00194157,-0.00599384,0.12835486,-0.00181203
 ,0.00015309,0.00061988,-0.01725914,0.00298384,-0.01592222,-0.00091747,
 0.00254854,-0.00181725,0.03303250,-0.06161103,0.04997032,0.00211763,-0
 .00258923,-0.00165008,0.00006039,-0.00019301,0.00016936,0.00074433,0.0
 0013938,0.00095372,0.00006122,0.00016708,0.00014904,-0.00227047,0.0013
 4388,-0.00552382,0.01444300,-0.00497787,0.02479471,-0.02801449,0.06160
 196,-0.00074216,-0.00032940,-0.00030388,-0.00431145,-0.00285888,0.0068
 6498,0.00033938,0.00038242,0.00068151,-0.10307722,0.04983449,-0.214122
 68,0.00278829,-0.00077189,-0.00053214,0.00010749,0.00010935,-0.0005969
 7,-0.00040105,-0.00084889,-0.00025838,0.00005390,-0.00012905,0.0002080
 4,-0.01272169,0.00747265,-0.02173547,0.00256786,-0.00073041,0.00219794
 ,0.11534253,-0.05220505,0.22757300,-0.00716789,-0.03771446,-0.00211539
 ,-0.00433951,0.03024554,0.00108356,-0.00390036,0.00052714,-0.00020230,
 -0.00032910,0.00423263,0.00020601,-0.05031637,0.00037260,0.00002756,-0
 .00011698,0.00080369,-0.00013256,-0.00011285,0.00085861,0.00021153,-0.
 00027900,-0.00005112,-0.00001235,0.00012063,-0.00016143,-0.00006474,-0
 .00076788,-0.00081975,-0.00005344,0.00012612,-0.00018547,0.00005411,0.
 06708318,-0.02272820,-0.01961912,-0.00200834,0.00693261,-0.02332924,-0
 .00118692,0.00242899,0.00242841,-0.00015331,-0.00262455,-0.00014190,-0
 .00000873,0.01291830,-0.25659972,-0.00870937,0.00014359,-0.00066295,-0
 .00002284,0.00016750,-0.00051268,0.00000224,-0.00078344,0.00057225,-0.
 00000053,0.00037397,0.00047495,-0.00001885,0.00089362,0.00115362,0.000
 07032,0.00038557,0.00043339,0.00007466,0.00189202,0.29580300,-0.001461
 71,-0.00231883,0.01558843,0.00006429,-0.00071462,0.00711121,-0.0001205
 2,-0.00019005,0.00703403,-0.00009539,0.00013975,-0.00121137,0.00057562
 ,-0.00896217,-0.05130693,0.00028825,0.00172224,-0.00019701,-0.00026718
 ,-0.00171579,-0.00035133,-0.00004466,0.00001430,0.00022206,0.00018757,
 -0.00042926,-0.00001589,0.00002449,0.00003139,0.00000407,-0.00014877,0
 .00046139,0.00002404,0.00099802,0.01196166,0.02309870\\0.00003395,0.00
 000757,-0.00000232,0.00001947,-0.00001014,0.00000999,0.00000102,0.0000
 1880,0.00001118,-0.00001130,-0.00001795,-0.00000108,-0.00005145,-0.000
 00182,0.00000027,0.00000019,-0.00001295,-0.00000790,0.00000397,-0.0000
 0172,-0.00000213,0.00000283,0.00001270,-0.00000831,0.00000044,-0.00000
 215,-0.00000040,-0.00000470,-0.00000295,-0.00000669,0.00000169,0.00000
 283,0.00000387,0.00000389,0.00000779,0.00000351\\\@


 THE MOST INCOMPREHENSIBLE THING ABOUT THE WORLD
 IS THAT IT IS COMPREHENSIBLE. -- A. EINSTEIN
 Job cpu time:       0 days  0 hours  8 minutes 55.8 seconds.
 Elapsed time:       0 days  0 hours  0 minutes 23.1 seconds.
 File lengths (MBytes):  RWF=     95 Int=      0 D2E=      0 Chk=      3 Scr=      2
 Normal termination of Gaussian 16 at Thu Jan 13 10:50:58 2022.
