11
Coordinates from ORCA-job CC_H8C3_d91b46644317dee9c2b868166c66a18c~2_scan Relaxed Surface Scan Step 1
  C      -5.481060      1.918927     -0.071752
  C      -3.956813      1.908501     -0.071757
  H      -5.879090      2.940208     -0.071623
  H      -5.878109      1.405406     -0.956416
  H      -5.878097      1.405193      0.812795
  C      -3.381129      0.497027     -0.071934
  H      -3.586538      2.455158     -0.949644
  H      -3.586542      2.454931      0.806273
  H      -2.285052      0.506757     -0.071972
  H      -3.710254     -0.062651      0.812621
  H      -3.710317     -0.062455     -0.956591
>
11
Coordinates from ORCA-job CC_H8C3_d91b46644317dee9c2b868166c66a18c~2_scan Relaxed Surface Scan Step 2
  C      -5.482842      1.918982     -0.052118
  C      -3.956946      1.907493     -0.034189
  H      -5.879137      2.918442     -0.265006
  H      -5.863905      1.252877     -0.837327
  H      -5.901877      1.574989      0.900877
  C      -3.379108      0.498606     -0.105858
  H      -3.579666      2.489378     -0.886171
  H      -3.591747      2.417417      0.867166
  H      -2.283303      0.508576     -0.079678
  H      -3.726771     -0.116860      0.733716
  H      -3.687698     -0.002900     -1.031411
>
11
Coordinates from ORCA-job CC_H8C3_d91b46644317dee9c2b868166c66a18c~2_scan Relaxed Surface Scan Step 3
  C      -5.486795      1.920093     -0.036888
  C      -3.956473      1.904787      0.001051
  H      -5.876960      2.855434     -0.453361
  H      -5.861516      1.117118     -0.685438
  H      -5.926260      1.766538      0.954894
  C      -3.375607      0.502188     -0.141519
  H      -3.565771      2.526377     -0.815773
  H      -3.598278      2.368814      0.929037
  H      -2.280583      0.510125     -0.090291
  H      -3.741152     -0.163533      0.650935
  H      -3.663603      0.059060     -1.102648
>
11
Coordinates from ORCA-job CC_H8C3_d91b46644317dee9c2b868166c66a18c~2_scan Relaxed Surface Scan Step 4
  C      -5.491663      1.918882     -0.028877
  C      -3.956689      1.899320      0.034162
  H      -5.868915      2.752927     -0.630542
  H      -5.871969      1.003632     -0.500561
  H      -5.948127      1.980585      0.964791
  C      -3.370319      0.507854     -0.179893
  H      -3.546792      2.569968     -0.732175
  H      -3.613118      2.301862      0.995372
  H      -2.276072      0.514521     -0.112455
  H      -3.746339     -0.201148      0.568741
  H      -3.642997      0.118596     -1.168564
>
11
Coordinates from ORCA-job CC_H8C3_d91b46644317dee9c2b868166c66a18c~2_scan Relaxed Surface Scan Step 5
  C      -5.495126      1.913476     -0.025320
  C      -3.958960      1.891135      0.066121
  H      -5.852451      2.614414     -0.787541
  H      -5.891048      0.924775     -0.287750
  H      -5.960086      2.202827      0.923394
  C      -3.364619      0.515989     -0.220086
  H      -3.530609      2.617348     -0.636108
  H      -3.637914      2.218576      1.062987
  H      -2.270853      0.523582     -0.144798
  H      -3.743441     -0.231100      0.488666
  H      -3.627893      0.175978     -1.229564
>
11
Coordinates from ORCA-job CC_H8C3_d91b46644317dee9c2b868166c66a18c~2_scan Relaxed Surface Scan Step 6
  C      -5.495329      1.905198     -0.020173
  C      -3.963498      1.880851      0.098629
  H      -5.827774      2.445899     -0.913429
  H      -5.912359      0.892172     -0.063362
  H      -5.959175      2.409684      0.835249
  C      -3.360372      0.526554     -0.259496
  H      -3.523836      2.660149     -0.536282
  H      -3.667951      2.131373      1.125697
  H      -2.267020      0.535702     -0.179103
  H      -3.738974     -0.256791      0.408660
  H      -3.616712      0.236210     -1.286390
>
11
Coordinates from ORCA-job CC_H8C3_d91b46644317dee9c2b868166c66a18c~2_scan Relaxed Surface Scan Step 7
  C      -5.492983      1.897754     -0.010199
  C      -3.968778      1.869734      0.132223
  H      -5.799459      2.255485     -1.000224
  H      -5.932001      0.906440      0.152405
  H      -5.948536      2.581625      0.715997
  C      -3.358723      0.539358     -0.295993
  H      -3.523999      2.691319     -0.443563
  H      -3.696053      2.054063      1.180032
  H      -2.266179      0.546546     -0.206097
  H      -3.740875     -0.280158      0.324909
  H      -3.605415      0.304833     -1.339489
>
11
Coordinates from ORCA-job CC_H8C3_d91b46644317dee9c2b868166c66a18c~2_scan Relaxed Surface Scan Step 8
  C      -5.490276      1.893523      0.003384
  C      -3.973203      1.858295      0.166088
  H      -5.774475      2.051598     -1.044257
  H      -5.951198      0.959697      0.347327
  H      -5.934211      2.714723      0.578855
  C      -3.358758      0.553963     -0.329310
  H      -3.524751      2.709581     -0.362801
  H      -3.717440      1.990204      1.226340
  H      -2.267906      0.552944     -0.221394
  H      -3.751888     -0.300972      0.234565
  H      -3.588893      0.383445     -1.388797
>
11
Coordinates from ORCA-job CC_H8C3_d91b46644317dee9c2b868166c66a18c~2_scan Relaxed Surface Scan Step 9
  C      -5.489279      1.891818      0.017415
  C      -3.976475      1.846121      0.198150
  H      -5.760828      1.841466     -1.044587
  H      -5.972174      1.045224      0.521421
  H      -5.918445      2.813270      0.427674
  C      -3.358147      0.569936     -0.360773
  H      -3.522401      2.718259     -0.291544
  H      -3.732337      1.934269      1.265535
  H      -2.270668      0.553243     -0.224368
  H      -3.770755     -0.317440      0.135560
  H      -3.561491      0.470833     -1.434481
>
11
Coordinates from ORCA-job CC_H8C3_d91b46644317dee9c2b868166c66a18c~2_scan Relaxed Surface Scan Step 10
  C      -5.491068      1.890464      0.029027
  C      -3.979257      1.831403      0.228252
  H      -5.761944      1.634660     -1.003177
  H      -5.998827      1.162468      0.674636
  H      -5.899554      2.880435      0.259724
  C      -3.354537      0.586758     -0.391510
  H      -3.516683      2.721141     -0.220632
  H      -3.744774      1.875568      1.300048
  H      -2.271636      0.551616     -0.225316
  H      -3.786690     -0.328314      0.033341
  H      -3.528029      0.560800     -1.474392
>
11
Coordinates from ORCA-job CC_H8C3_d91b46644317dee9c2b868166c66a18c~2_scan Relaxed Surface Scan Step 11
  C      -5.495753      1.887216      0.038281
  C      -3.982379      1.812950      0.256995
  H      -5.777221      1.440062     -0.923313
  H      -6.031762      1.314083      0.805255
  H      -5.873752      2.914283      0.071693
  C      -3.347274      0.604864     -0.422513
  H      -3.509621      2.721432     -0.140226
  H      -3.758519      1.803250      1.331368
  H      -2.268446      0.554906     -0.234560
  H      -3.791208     -0.333097     -0.064704
  H      -3.497067      0.647051     -1.508276
>
11
Coordinates from ORCA-job CC_H8C3_d91b46644317dee9c2b868166c66a18c~2_scan Relaxed Surface Scan Step 12
  C      -5.501806      1.880645      0.047568
  C      -3.986510      1.790623      0.285051
  H      -5.805710      1.264885     -0.807985
  H      -6.065918      1.503601      0.908806
  H      -5.836887      2.906711     -0.135776
  C      -3.337563      0.625370     -0.454428
  H      -3.504294      2.720598     -0.043453
  H      -3.776927      1.710510      1.359003
  H      -2.260718      0.569074     -0.256524
  H      -3.782061     -0.332201     -0.154259
  H      -3.474607      0.727183     -1.538001
>
11
Coordinates from ORCA-job CC_H8C3_d91b46644317dee9c2b868166c66a18c~2_scan Relaxed Surface Scan Step 13
  C      -5.506231      1.871283      0.059020
  C      -3.991872      1.766941      0.312943
  H      -5.840792      1.113681     -0.660295
  H      -6.088917      1.723652      0.974703
  H      -5.788831      2.847516     -0.349820
  C      -3.329205      0.649650     -0.486363
  H      -3.503761      2.718516      0.067509
  H      -3.800989      1.603041      1.380990
  H      -2.252725      0.591905     -0.286603
  H      -3.768277     -0.324686     -0.237691
  H      -3.461400      0.805501     -1.564394
>
11
Coordinates from ORCA-job CC_H8C3_d91b46644317dee9c2b868166c66a18c~2_scan Relaxed Surface Scan Step 14
  C      -5.506586      1.862005      0.070898
  C      -3.998744      1.742983      0.340810
  H      -5.878867      0.994273     -0.487602
  H      -6.091713      1.951108      0.991887
  H      -5.734915      2.739706     -0.545440
  C      -3.324382      0.676900     -0.516204
  H      -3.508854      2.711372      0.179763
  H      -3.829904      1.496368      1.397230
  H      -2.248105      0.617252     -0.316176
  H      -3.757559     -0.311482     -0.319374
  H      -3.453372      0.886514     -1.585790
>
11
Coordinates from ORCA-job CC_H8C3_d91b46644317dee9c2b868166c66a18c~2_scan Relaxed Surface Scan Step 15
  C      -5.504083      1.854400      0.079686
  C      -4.006640      1.718712      0.367179
  H      -5.920138      0.912308     -0.298761
  H      -6.074435      2.160401      0.962788
  H      -5.686783      2.600004     -0.704483
  C      -3.321562      0.704841     -0.542405
  H      -3.517126      2.696934      0.278095
  H      -3.860491      1.403433      1.409238
  H      -2.247121      0.636460     -0.335984
  H      -3.753951     -0.293817     -0.405303
  H      -3.440669      0.973324     -1.600049
>
11
Coordinates from ORCA-job CC_H8C3_d91b46644317dee9c2b868166c66a18c~2_scan Relaxed Surface Scan Step 16
  C      -5.502183      1.846947      0.084207
  C      -4.015067      1.693049      0.390201
  H      -5.968195      0.870871     -0.100908
  H      -6.042669      2.341192      0.898827
  H      -5.653791      2.442509     -0.825225
  C      -3.317184      0.731948     -0.565208
  H      -3.526136      2.675691      0.357971
  H      -3.889828      1.325245      1.417886
  H      -2.247157      0.645965     -0.343453
  H      -3.754926     -0.271693     -0.498041
  H      -3.415863      1.065275     -1.606256
>
11
Coordinates from ORCA-job CC_H8C3_d91b46644317dee9c2b868166c66a18c~2_scan Relaxed Surface Scan Step 17
  C      -5.503403      1.837425      0.086285
  C      -4.023714      1.665199      0.409293
  H      -6.024534      0.871868      0.099640
  H      -6.001453      2.495304      0.807819
  H      -5.640652      2.271759     -0.911978
  C      -3.309102      0.758209     -0.585660
  H      -3.535019      2.648867      0.424484
  H      -3.915419      1.255276      1.422626
  H      -2.246140      0.647595     -0.341971
  H      -3.755481     -0.244143     -0.596002
  H      -3.378082      1.159642     -1.604536
>
11
Coordinates from ORCA-job CC_H8C3_d91b46644317dee9c2b868166c66a18c~2_scan Relaxed Surface Scan Step 18
  C      -5.508218      1.825927      0.088533
  C      -4.032076      1.635062      0.426068
  H      -6.085099      0.916080      0.295071
  H      -5.954276      2.627116      0.689882
  H      -5.646159      2.087203     -0.967702
  C      -3.297966      0.784601     -0.604361
  H      -3.542886      2.616780      0.488083
  H      -3.936151      1.184353      1.422655
  H      -2.243223      0.647445     -0.339151
  H      -3.751323     -0.210915     -0.693609
  H      -3.335623      1.253348     -1.595467
>
11
Coordinates from ORCA-job CC_H8C3_d91b46644317dee9c2b868166c66a18c~2_scan Relaxed Surface Scan Step 19
  C      -5.514954      1.815455      0.092547
  C      -4.039553      1.603397      0.442778
  H      -6.142417      1.002655      0.476769
  H      -5.901931      2.738505      0.540460
  H      -5.665930      1.887829     -0.990969
  C      -3.286168      0.812995     -0.621614
  H      -3.548383      2.578546      0.561411
  H      -3.954149      1.103017      1.415758
  H      -2.237997      0.654168     -0.342456
  H      -3.740914     -0.172851     -0.782986
  H      -3.300605      1.343284     -1.581698
>
11
Coordinates from ORCA-job CC_H8C3_d91b46644317dee9c2b868166c66a18c~2_scan Relaxed Surface Scan Step 20
  C      -5.520970      1.809040      0.098839
  C      -4.046233      1.571754      0.459659
  H      -6.188939      1.128440      0.638577
  H      -5.842003      2.824850      0.356319
  H      -5.698775      1.675805     -0.974816
  C      -3.275418      0.845262     -0.637723
  H      -3.552620      2.533301      0.651344
  H      -3.973638      1.007573      1.397829
  H      -2.231143      0.671464     -0.352633
  H      -3.726861     -0.129829     -0.861110
  H      -3.276399      1.429340     -1.566285
>
11
Coordinates from ORCA-job CC_H8C3_d91b46644317dee9c2b868166c66a18c~2_scan Relaxed Surface Scan Step 21
  C      -5.523743      1.807201      0.105623
  C      -4.053605      1.540933      0.475132
  H      -6.217662      1.287187      0.774973
  H      -5.772300      2.873220      0.145528
  H      -5.744010      1.464206     -0.912769
  C      -3.266237      0.881260     -0.652401
  H      -3.559894      2.480764      0.752516
  H      -4.000378      0.904090      1.367102
  H      -2.223932      0.698140     -0.365812
  H      -3.711028     -0.082570     -0.930082
  H      -3.260210      1.512569     -1.549812
>
11
Coordinates from ORCA-job CC_H8C3_d91b46644317dee9c2b868166c66a18c~2_scan Relaxed Surface Scan Step 22
  C      -5.522632      1.805529      0.109962
  C      -4.063010      1.510103      0.487660
  H      -6.224394      1.468130      0.880472
  H      -5.698048      2.871545     -0.069647
  H      -5.800164      1.274963     -0.810090
  C      -3.258219      0.918384     -0.664735
  H      -3.573971      2.423495      0.848912
  H      -4.034604      0.805314      1.328814
  H      -2.217726      0.727884     -0.376503
  H      -3.694003     -0.032461     -0.995377
  H      -3.246229      1.594114     -1.529467
>
11
Coordinates from ORCA-job CC_H8C3_d91b46644317dee9c2b868166c66a18c~2_scan Relaxed Surface Scan Step 23
  C      -5.520311      1.798348      0.110827
  C      -4.074077      1.478352      0.497546
  H      -6.209676      1.659442      0.951098
  H      -5.629680      2.820156     -0.268964
  H      -5.864209      1.119472     -0.680883
  C      -3.250856      0.954388     -0.673996
  H      -3.594162      2.366905      0.927609
  H      -4.068911      0.720071      1.292042
  H      -2.214069      0.750685     -0.381831
  H      -3.679009      0.022522     -1.063257
  H      -3.228041      1.676658     -1.500191
>
11
Coordinates from ORCA-job CC_H8C3_d91b46644317dee9c2b868166c66a18c~2_scan Relaxed Surface Scan Step 24
  C      -5.520291      1.783733      0.110023
  C      -4.085775      1.444489      0.504995
  H      -6.177481      1.852362      0.984469
  H      -5.574985      2.729672     -0.441625
  H      -5.936835      1.001589     -0.538246
  C      -3.242909      0.988162     -0.680392
  H      -3.617289      2.313314      0.986171
  H      -4.096299      0.647640      1.261131
  H      -2.211884      0.764840     -0.382582
  H      -3.664451      0.082202     -1.133230
  H      -3.204800      1.758997     -1.460713
