11
Coordinates from ORCA-job CC_H8C3_d91b46644317dee9c2b868166c66a18c~1_scan Relaxed Surface Scan Step 1
  C      -5.482483      1.918755     -0.071747
  C      -3.954911      1.911344     -0.071758
  H      -5.881742      2.938155     -0.071620
  H      -5.876129      1.404104     -0.955766
  H      -5.876116      1.403892      0.812155
  C      -3.380742      0.495627     -0.071934
  H      -3.585234      2.457082     -0.949458
  H      -3.585222      2.456868      0.806069
  H      -2.285926      0.503518     -0.071950
  H      -3.712233     -0.061278      0.811982
  H      -3.712261     -0.061067     -0.955973
>
11
Coordinates from ORCA-job CC_H8C3_d91b46644317dee9c2b868166c66a18c~1_scan Relaxed Surface Scan Step 2
  C      -5.484434      1.918879     -0.051644
  C      -3.955007      1.910205     -0.034544
  H      -5.881646      2.916524     -0.264695
  H      -5.861820      1.252193     -0.836378
  H      -5.900347      1.573448      0.900729
  C      -3.378596      0.497118     -0.106034
  H      -3.578950      2.491085     -0.886657
  H      -3.590053      2.419389      0.866315
  H      -2.284076      0.505328     -0.078976
  H      -3.729335     -0.115413      0.732872
  H      -3.688735     -0.001756     -1.030989
>
11
Coordinates from ORCA-job CC_H8C3_d91b46644317dee9c2b868166c66a18c~1_scan Relaxed Surface Scan Step 3
  C      -5.488741      1.920263     -0.036035
  C      -3.954442      1.907218      0.000488
  H      -5.879346      2.853782     -0.452693
  H      -5.859761      1.117187     -0.684295
  H      -5.925430      1.765008      0.955222
  C      -3.374875      0.500563     -0.141831
  H      -3.565577      2.527623     -0.816875
  H      -3.596286      2.370929      0.927586
  H      -2.281173      0.506935     -0.089040
  H      -3.743813     -0.162292      0.649842
  H      -3.663555      0.059784     -1.102370
>
11
Coordinates from ORCA-job CC_H8C3_d91b46644317dee9c2b868166c66a18c~1_scan Relaxed Surface Scan Step 4
  C      -5.494052      1.919337     -0.028096
  C      -3.954542      1.901392      0.033768
  H      -5.871193      2.751703     -0.629697
  H      -5.870626      1.004189     -0.499512
  H      -5.948280      1.979618      0.965127
  C      -3.369315      0.506021     -0.180291
  H      -3.546612      2.570798     -0.733270
  H      -3.611175      2.303853      0.993967
  H      -2.276359      0.511577     -0.111986
  H      -3.747903     -0.200103      0.568007
  H      -3.642940      0.118615     -1.168019
>
11
Coordinates from ORCA-job CC_H8C3_d91b46644317dee9c2b868166c66a18c~1_scan Relaxed Surface Scan Step 5
  C      -5.497766      1.913940     -0.025001
  C      -3.956819      1.892909      0.066202
  H      -5.854298      2.613547     -0.786791
  H      -5.890123      0.925347     -0.286602
  H      -5.961034      2.202938      0.923047
  C      -3.363414      0.513980     -0.220528
  H      -3.530145      2.618003     -0.636593
  H      -3.636385      2.220135      1.062190
  H      -2.270828      0.521121     -0.146107
  H      -3.743292     -0.230253      0.488729
  H      -3.628894      0.175333     -1.228548
>
11
Coordinates from ORCA-job CC_H8C3_d91b46644317dee9c2b868166c66a18c~1_scan Relaxed Surface Scan Step 6
  C      -5.497730      1.905335     -0.020189
  C      -3.961431      1.882686      0.099188
  H      -5.829119      2.444920     -0.912827
  H      -5.911079      0.892435     -0.061886
  H      -5.960278      2.410271      0.833921
  C      -3.359288      0.524578     -0.259957
  H      -3.523107      2.660938     -0.536236
  H      -3.666678      2.132864      1.125497
  H      -2.267030      0.533397     -0.181757
  H      -3.738203     -0.255882      0.409305
  H      -3.619056      0.235458     -1.285061
>
11
Coordinates from ORCA-job CC_H8C3_d91b46644317dee9c2b868166c66a18c~1_scan Relaxed Surface Scan Step 7
  C      -5.494884      1.897649     -0.010231
  C      -3.966762      1.871837      0.133072
  H      -5.799960      2.254217     -0.999606
  H      -5.929975      0.906402      0.153857
  H      -5.949893      2.581638      0.714265
  C      -3.357994      0.537539     -0.296422
  H      -3.523121      2.692205     -0.443583
  H      -3.694585      2.056089      1.180080
  H      -2.266494      0.544121     -0.209313
  H      -3.740534     -0.279011      0.325886
  H      -3.608798      0.304315     -1.338006
>
11
Coordinates from ORCA-job CC_H8C3_d91b46644317dee9c2b868166c66a18c~1_scan Relaxed Surface Scan Step 8
  C      -5.491797      1.893408      0.003545
  C      -3.971207      1.860719      0.166952
  H      -5.774162      2.050043     -1.043487
  H      -5.948573      0.959348      0.348314
  H      -5.935944      2.713851      0.577492
  C      -3.358403      0.552292     -0.329766
  H      -3.523752      2.710598     -0.363252
  H      -3.715477      1.992883      1.226309
  H      -2.268578      0.550318     -0.224581
  H      -3.752408     -0.299493      0.235792
  H      -3.592697      0.383033     -1.387321
>
11
Coordinates from ORCA-job CC_H8C3_d91b46644317dee9c2b868166c66a18c~1_scan Relaxed Surface Scan Step 9
  C      -5.490649      1.891796      0.017782
  C      -3.974432      1.848834      0.198803
  H      -5.759910      1.839560     -1.043460
  H      -5.969419      1.044670      0.522090
  H      -5.920553      2.811820      0.427023
  C      -3.357997      0.568360     -0.361393
  H      -3.521457      2.719565     -0.292511
  H      -3.729842      1.937397      1.265225
  H      -2.271569      0.550365     -0.227159
  H      -3.772214     -0.315658      0.136853
  H      -3.564957      0.470291     -1.433255
>
11
Coordinates from ORCA-job CC_H8C3_d91b46644317dee9c2b868166c66a18c~1_scan Relaxed Surface Scan Step 10
  C      -5.492575      1.890544      0.029603
  C      -3.977102      1.834255      0.228582
  H      -5.760780      1.632409     -1.001362
  H      -5.996496      1.161800      0.675287
  H      -5.901833      2.878845      0.259876
  C      -3.354327      0.585217     -0.392342
  H      -3.516074      2.722694     -0.222329
  H      -3.741799      1.879140      1.299327
  H      -2.272587      0.548394     -0.227396
  H      -3.788963     -0.326425      0.034289
  H      -3.530463      0.560126     -1.473535
>
11
Coordinates from ORCA-job CC_H8C3_d91b46644317dee9c2b868166c66a18c~1_scan Relaxed Surface Scan Step 11
  C      -5.497593      1.887443      0.038962
  C      -3.980048      1.815754      0.257084
  H      -5.776320      1.437847     -0.920717
  H      -6.029986      1.313429      0.805953
  H      -5.876278      2.912793      0.072492
  C      -3.346823      0.603252     -0.423534
  H      -3.509238      2.723020     -0.142679
  H      -3.755274      1.807211      1.330365
  H      -2.269269      0.551443     -0.236115
  H      -3.793689     -0.331349     -0.064102
  H      -3.498481      0.646159     -1.507709
>
11
Coordinates from ORCA-job CC_H8C3_d91b46644317dee9c2b868166c66a18c~1_scan Relaxed Surface Scan Step 12
  C      -5.504099      1.881000      0.048246
  C      -3.984052      1.793059      0.285142
  H      -5.805307      1.263264     -0.804904
  H      -6.064980      1.503441      0.909655
  H      -5.839574      2.905498     -0.134919
  C      -3.336774      0.623589     -0.455618
  H      -3.503911      2.721960     -0.046142
  H      -3.773722      1.714353      1.358058
  H      -2.261112      0.566093     -0.258487
  H      -3.783584     -0.330930     -0.153430
  H      -3.475884      0.725672     -1.537602
>
11
Coordinates from ORCA-job CC_H8C3_d91b46644317dee9c2b868166c66a18c~1_scan Relaxed Surface Scan Step 13
  C      -5.508783      1.871638      0.059808
  C      -3.989443      1.768834      0.313530
  H      -5.840316      1.112847     -0.657223
  H      -6.088938      1.724795      0.975515
  H      -5.791070      2.846035     -0.349876
  C      -3.328262      0.647743     -0.487685
  H      -3.503222      2.719534      0.065536
  H      -3.798094      1.606152      1.380620
  H      -2.252584      0.590344     -0.290292
  H      -3.768057     -0.324089     -0.235886
  H      -3.464230      0.803169     -1.564048
>
11
Coordinates from ORCA-job CC_H8C3_d91b46644317dee9c2b868166c66a18c~1_scan Relaxed Surface Scan Step 14
  C      -5.508894      1.862258      0.071820
  C      -3.996429      1.744674      0.341989
  H      -5.877830      0.993720     -0.484696
  H      -6.092045      1.953315      0.992210
  H      -5.736449      2.737210     -0.546276
  C      -3.323652      0.675053     -0.517578
  H      -3.508037      2.712302      0.178552
  H      -3.827259      1.499002      1.397543
  H      -2.247859      0.616842     -0.321363
  H      -3.756539     -0.311247     -0.316749
  H      -3.458006      0.883870     -1.585453
>
11
Coordinates from ORCA-job CC_H8C3_d91b46644317dee9c2b868166c66a18c~1_scan Relaxed Surface Scan Step 15
  C      -5.505917      1.854534      0.080649
  C      -4.004423      1.720588      0.368710
  H      -5.918111      0.911529     -0.295742
  H      -6.074837      2.162510      0.962332
  H      -5.687787      2.596542     -0.705328
  C      -3.321242      0.703170     -0.543795
  H      -3.516021      2.698109      0.276991
  H      -3.857707      1.406411      1.410067
  H      -2.247188      0.636204     -0.341631
  H      -3.753568     -0.293522     -0.402490
  H      -3.446198      0.970926     -1.599762
>
11
Coordinates from ORCA-job CC_H8C3_d91b46644317dee9c2b868166c66a18c~1_scan Relaxed Surface Scan Step 16
  C      -5.503640      1.846936      0.085093
  C      -4.012873      1.695228      0.391883
  H      -5.965547      0.869873     -0.097664
  H      -6.043408      2.342343      0.897698
  H      -5.654190      2.438610     -0.825512
  C      -3.317179      0.730460     -0.566669
  H      -3.524860      2.677292      0.356506
  H      -3.886571      1.328906      1.419071
  H      -2.247534      0.645425     -0.349057
  H      -3.755617     -0.271187     -0.495208
  H      -3.421579      1.063113     -1.606142
>
11
Coordinates from ORCA-job CC_H8C3_d91b46644317dee9c2b868166c66a18c~1_scan Relaxed Surface Scan Step 17
  C      -5.504747      1.837132      0.087194
  C      -4.021419      1.667771      0.410917
  H      -6.021830      0.870808      0.103445
  H      -6.002701      2.495514      0.806389
  H      -5.640717      2.267444     -0.911645
  C      -3.309179      0.756877     -0.587310
  H      -3.533780      2.651104      0.422527
  H      -3.911498      1.259553      1.423879
  H      -2.246726      0.646388     -0.347152
  H      -3.757396     -0.243339     -0.593503
  H      -3.383005      1.157748     -1.604740
>
11
Coordinates from ORCA-job CC_H8C3_d91b46644317dee9c2b868166c66a18c~1_scan Relaxed Surface Scan Step 18
  C      -5.509742      1.825382      0.089431
  C      -4.029628      1.637841      0.427494
  H      -6.082769      0.915396      0.299187
  H      -5.955898      2.626382      0.688635
  H      -5.646170      2.082976     -0.966574
  C      -3.297875      0.783306     -0.606191
  H      -3.541884      2.619567      0.485546
  H      -3.931802      1.189078      1.423843
  H      -2.243727      0.645916     -0.344038
  H      -3.753749     -0.210124     -0.691246
  H      -3.339755      1.251278     -1.596088
>
11
Coordinates from ORCA-job CC_H8C3_d91b46644317dee9c2b868166c66a18c~1_scan Relaxed Surface Scan Step 19
  C      -5.516863      1.814772      0.093454
  C      -4.036901      1.606171      0.443919
  H      -6.140646      1.002500      0.480965
  H      -5.903962      2.736991      0.539841
  H      -5.666381      1.884061     -0.989023
  C      -3.285754      0.811631     -0.623607
  H      -3.547562      2.581727      0.558123
  H      -3.949541      1.108153      1.416906
  H      -2.238247      0.652568     -0.347058
  H      -3.743215     -0.172362     -0.780722
  H      -3.303929      1.340787     -1.582799
>
11
Coordinates from ORCA-job CC_H8C3_d91b46644317dee9c2b868166c66a18c~1_scan Relaxed Surface Scan Step 20
  C      -5.523346      1.808498      0.099941
  C      -4.043412      1.574277      0.460712
  H      -6.187700      1.128917      0.642614
  H      -5.844495      2.823218      0.355833
  H      -5.699559      1.672125     -0.971985
  C      -3.274759      0.843833     -0.639930
  H      -3.551674      2.536556      0.647757
  H      -3.968877      1.012665      1.399123
  H      -2.231061      0.670386     -0.357324
  H      -3.728557     -0.129877     -0.858785
  H      -3.279559      1.426402     -1.567957
>
11
Coordinates from ORCA-job CC_H8C3_d91b46644317dee9c2b868166c66a18c~1_scan Relaxed Surface Scan Step 21
  C      -5.526312      1.807065      0.106986
  C      -4.050784      1.543009      0.476344
  H      -6.216806      1.288253      0.778563
  H      -5.774811      2.871753      0.144393
  H      -5.744880      1.460487     -0.908856
  C      -3.265541      0.879784     -0.654849
  H      -3.558562      2.483764      0.749166
  H      -3.995770      0.908693      1.368759
  H      -2.223488      0.698346     -0.371018
  H      -3.711796     -0.083441     -0.927421
  H      -3.264249      1.509287     -1.552069
>
11
Coordinates from ORCA-job CC_H8C3_d91b46644317dee9c2b868166c66a18c~1_scan Relaxed Surface Scan Step 22
  C      -5.524847      1.805761      0.111428
  C      -4.060345      1.511830      0.489321
  H      -6.223705      1.469639      0.883189
  H      -5.699945      2.869775     -0.071689
  H      -5.800394      1.271408     -0.805244
  C      -3.257799      0.916948     -0.667331
  H      -3.572119      2.426172      0.846263
  H      -4.030430      0.809290      1.331000
  H      -2.217031      0.729818     -0.382619
  H      -3.694174     -0.034206     -0.992037
  H      -3.252209      1.590564     -1.532284
>
11
Coordinates from ORCA-job CC_H8C3_d91b46644317dee9c2b868166c66a18c~1_scan Relaxed Surface Scan Step 23
  C      -5.521983      1.798538      0.112227
  C      -4.071533      1.480043      0.499633
  H      -6.209021      1.661047      0.952925
  H      -5.631052      2.817495     -0.271389
  H      -5.863380      1.115952     -0.675470
  C      -3.250841      0.953095     -0.676652
  H      -3.591934      2.369741      0.925306
  H      -4.064816      0.724010      1.294940
  H      -2.213516      0.753230     -0.388498
  H      -3.679735      0.020543     -1.059768
  H      -3.235189      1.673306     -1.503254
>
11
Coordinates from ORCA-job CC_H8C3_d91b46644317dee9c2b868166c66a18c~1_scan Relaxed Surface Scan Step 24
  C      -5.521612      1.783512      0.111413
  C      -4.083227      1.446338      0.507361
  H      -6.177067      1.853816      0.985412
  H      -5.576024      2.726007     -0.443632
  H      -5.935189      0.998207     -0.532815
  C      -3.243227      0.987057     -0.683104
  H      -3.614881      2.316728      0.983864
  H      -4.091699      0.651893      1.264773
  H      -2.211632      0.767218     -0.389443
  H      -3.666233      0.080296     -1.129856
  H      -3.212208      1.755929     -1.463974
