
                                 *****************
                                 * O   R   C   A *
                                 *****************

                                            #,                                       
                                            ###                                      
                                            ####                                     
                                            #####                                    
                                            ######                                   
                                           ########,                                 
                                     ,,################,,,,,                         
                               ,,#################################,,                 
                          ,,##########################################,,             
                       ,#########################################, ''#####,          
                    ,#############################################,,   '####,        
                  ,##################################################,,,,####,       
                ,###########''''           ''''###############################       
              ,#####''   ,,,,##########,,,,          '''####'''          '####       
            ,##' ,,,,###########################,,,                        '##       
           ' ,,###''''                  '''############,,,                           
         ,,##''                                '''############,,,,        ,,,,,,###''
      ,#''                                            '''#######################'''  
     '                                                          ''''####''''         
             ,#######,   #######,   ,#######,      ##                                
            ,#'     '#,  ##    ##  ,#'     '#,    #''#        ######   ,####,        
            ##       ##  ##   ,#'  ##            #'  '#       #        #'  '#        
            ##       ##  #######   ##           ,######,      #####,   #    #        
            '#,     ,#'  ##    ##  '#,     ,#' ,#      #,         ##   #,  ,#        
             '#######'   ##     ##  '#######'  #'      '#     #####' # '####'        



                  #######################################################
                  #                        -***-                        #
                  #          Department of theory and spectroscopy      #
                  #    Directorship and core code : Frank Neese         #
                  #        Max Planck Institute fuer Kohlenforschung    #
                  #                Kaiser Wilhelm Platz 1               #
                  #                 D-45470 Muelheim/Ruhr               #
                  #                      Germany                        #
                  #                                                     #
                  #                  All rights reserved                #
                  #                        -***-                        #
                  #######################################################


                         Program Version 5.0.2 -  RELEASE  -


 With contributions from (in alphabetic order):
   Daniel Aravena         : Magnetic Suceptibility
   Michael Atanasov       : Ab Initio Ligand Field Theory (pilot matlab implementation)
   Alexander A. Auer      : GIAO ZORA, VPT2 properties, NMR spectrum
   Ute Becker             : Parallelization
   Giovanni Bistoni       : ED, misc. LED, open-shell LED, HFLD
   Martin Brehm           : Molecular dynamics
   Dmytro Bykov           : SCF Hessian
   Vijay G. Chilkuri      : MRCI spin determinant printing, contributions to CSF-ICE
   Dipayan Datta          : RHF DLPNO-CCSD density
   Achintya Kumar Dutta   : EOM-CC, STEOM-CC
   Dmitry Ganyushin       : Spin-Orbit,Spin-Spin,Magnetic field MRCI
   Miquel Garcia          : C-PCM and meta-GGA Hessian, CC/C-PCM, Gaussian charge scheme
   Yang Guo               : DLPNO-NEVPT2, F12-NEVPT2, CIM, IAO-localization
   Andreas Hansen         : Spin unrestricted coupled pair/coupled cluster methods
   Benjamin Helmich-Paris : MC-RPA, TRAH-SCF, COSX integrals
   Lee Huntington         : MR-EOM, pCC
   Robert Izsak           : Overlap fitted RIJCOSX, COSX-SCS-MP3, EOM
   Marcus Kettner         : VPT2
   Christian Kollmar      : KDIIS, OOCD, Brueckner-CCSD(T), CCSD density, CASPT2, CASPT2-K
   Simone Kossmann        : Meta GGA functionals, TD-DFT gradient, OOMP2, MP2 Hessian
   Martin Krupicka        : Initial AUTO-CI
   Lucas Lang             : DCDCAS
   Marvin Lechner         : AUTO-CI (C++ implementation), FIC-MRCC
   Dagmar Lenk            : GEPOL surface, SMD
   Dimitrios Liakos       : Extrapolation schemes; Compound Job, initial MDCI parallelization
   Dimitrios Manganas     : Further ROCIS development; embedding schemes
   Dimitrios Pantazis     : SARC Basis sets
   Anastasios Papadopoulos: AUTO-CI, single reference methods and gradients
   Taras Petrenko         : DFT Hessian,TD-DFT gradient, ASA, ECA, R-Raman, ABS, FL, XAS/XES, NRVS
   Peter Pinski           : DLPNO-MP2, DLPNO-MP2 Gradient
   Christoph Reimann      : Effective Core Potentials
   Marius Retegan         : Local ZFS, SOC
   Christoph Riplinger    : Optimizer, TS searches, QM/MM, DLPNO-CCSD(T), (RO)-DLPNO pert. Triples
   Tobias Risthaus        : Range-separated hybrids, TD-DFT gradient, RPA, STAB
   Michael Roemelt        : Original ROCIS implementation
   Masaaki Saitow         : Open-shell DLPNO-CCSD energy and density
   Barbara Sandhoefer     : DKH picture change effects
   Avijit Sen             : IP-ROCIS
   Kantharuban Sivalingam : CASSCF convergence, NEVPT2, FIC-MRCI
   Bernardo de Souza      : ESD, SOC TD-DFT
   Georgi Stoychev        : AutoAux, RI-MP2 NMR, DLPNO-MP2 response
   Willem Van den Heuvel  : Paramagnetic NMR
   Boris Wezisla          : Elementary symmetry handling
   Frank Wennmohs         : Technical directorship


 We gratefully acknowledge several colleagues who have allowed us to
 interface, adapt or use parts of their codes:
   Stefan Grimme, W. Hujo, H. Kruse, P. Pracht,  : VdW corrections, initial TS optimization,
                  C. Bannwarth, S. Ehlert          DFT functionals, gCP, sTDA/sTD-DF
   Ed Valeev, F. Pavosevic, A. Kumar             : LibInt (2-el integral package), F12 methods
   Garnet Chan, S. Sharma, J. Yang, R. Olivares  : DMRG
   Ulf Ekstrom                                   : XCFun DFT Library
   Mihaly Kallay                                 : mrcc  (arbitrary order and MRCC methods)
   Jiri Pittner, Ondrej Demel                    : Mk-CCSD
   Frank Weinhold                                : gennbo (NPA and NBO analysis)
   Christopher J. Cramer and Donald G. Truhlar   : smd solvation model
   Lars Goerigk                                  : TD-DFT with DH, B97 family of functionals
   V. Asgeirsson, H. Jonsson                     : NEB implementation
   FAccTs GmbH                                   : IRC, NEB, NEB-TS, DLPNO-Multilevel, CI-OPT
                                                   MM, QMMM, 2- and 3-layer-ONIOM, Crystal-QMMM,
                                                   LR-CPCM, SF, NACMEs, symmetry and pop. for TD-DFT,
                                                   nearIR, NL-DFT gradient (VV10), updates on ESD,
                                                   ML-optimized integration grids
   S Lehtola, MJT Oliveira, MAL Marques          : LibXC Library
   Liviu Ungur et al                             : ANISO software


 Your calculation uses the libint2 library for the computation of 2-el integrals
 For citations please refer to: http://libint.valeyev.net

 Your ORCA version has been built with support for libXC version: 5.1.0
 For citations please refer to: https://tddft.org/programs/libxc/

 This ORCA versions uses:
   CBLAS   interface :  Fast vector & matrix operations
   LAPACKE interface :  Fast linear algebra routines
   SCALAPACK package :  Parallel linear algebra routines
   Shared memory     :  Shared parallel matrices
   BLAS/LAPACK       :  OpenBLAS 0.3.15  USE64BITINT DYNAMIC_ARCH NO_AFFINITY SkylakeX SINGLE_THREADED
        Core in use  :  SkylakeX
   Copyright (c) 2011-2014, The OpenBLAS Project




################################################################################


                                COMPOUND JOB MainJOB 
Basename: DMF_hessian_Compound_0

################################################################################

================================================================================
                                       INPUT FILE
================================================================================
NAME = DMF_hessian_Compound_0.inp
|  1> * xyz   0   1
|  2>    O     1.781919     0.061167     0.617891
|  3>    N    -0.458507    -0.023540     0.222374
|  4>    C    -0.589011     1.423735     0.290771
|  5>    C    -1.641578    -0.835565     0.033520
|  6>    C     0.765790    -0.571854     0.409042
|  7>    H    -0.423534     1.788876     1.307544
|  8>    H    -1.590125     1.706637    -0.030049
|  9>    H     0.145753     1.900333    -0.358357
| 10>    H    -2.360255    -0.689310     0.845882
| 11>    H    -1.357275    -1.887450     0.015213
| 12>    H    -2.137503    -0.597303    -0.911673
| 13>    H     0.752325    -1.675728     0.353841
| 14>   *
| 15>  
| 16>  %pal nprocs  12 end
| 17>  %maxcore  937
| 18>  
| 19> 
| 20>                          ****END OF INPUT****
================================================================================
================================================================================

----- Orbital basis set information -----
Your calculation utilizes the basis: def2-SVP
   F. Weigend and R. Ahlrichs, Phys. Chem. Chem. Phys. 7, 3297 (2005).



################################################################################


                                COMPOUND JOB  1 
Basename: DMF_hessian_Compound_1
NOTE: please remember that MaxCore and PAL settings will be ignored.

################################################################################

================================================================================
                                       INPUT FILE
================================================================================
NAME = DMF_hessian_Compound_1.inp
|  1>   ! opt r2SCAN-3c nopop
|  2>   %base "DMF_initial"
|  3> 
|  4>                          ****END OF INPUT****
================================================================================
Your calculation utilizes the geometrical counterpoise correction gCP
Please cite in your paper:
H.Kruse, S. Grimme J.Chem.Phys., 136, (2012), 154101 
   

Your calculation utilizes the atom-pairwise dispersion correction
based on tight binding partial charges (D4)
Cite in your paper:
E.Caldeweyher, C.Bannwarth, S.Grimme, J.Chem.Phys., (2017), 147, 034112.
E.Caldeweyher, S.Ehlert, A.Hansen, H.Neugebauer, S.Grimme, J.Chem.Phys., (2018), in progress.
   

================================================================================

----- Orbital basis set information -----
Your calculation utilizes the basis: def2-mTZVPP
   Stefan Grimme, Andreas Hansen, Sebastian Ehlert, and Jan-Michael Mewes 
   J. Chem. Phys. 154, 000000 (2021). DOI: 10.1063/5.0040021

----- AuxJ basis set information -----
Your calculation utilizes the basis: def2-mTZVPP/J
   Stefan Grimme, Andreas Hansen, Sebastian Ehlert, and Jan-Michael Mewes 
   J. Chem. Phys. 154, 000000 (2021). DOI: 10.1063/5.0040021

================================================================================
                                        WARNINGS
                       Please study these warnings very carefully!
================================================================================

Using LibXC functional ID 497 : Re-regularized SCAN exchange by Furness et al
[ 1]  J. W. Furness, A. D. Kaplan, J. Ning, J. P. Perdew, and J. Sun, J. Phys. Chem. Lett. 11, 8208 (2020)
[ 2]  J. W. Furness, A. D. Kaplan, J. Ning, J. P. Perdew, and J. Sun, J. Phys. Chem. Lett. 11, 9248 (2020)
Using LibXC functional ID 498 : Re-regularized SCAN correlation by Furness et al
[ 1]  J. W. Furness, A. D. Kaplan, J. Ning, J. P. Perdew, and J. Sun, J. Phys. Chem. Lett. 11, 8208 (2020)
[ 2]  J. W. Furness, A. D. Kaplan, J. Ning, J. P. Perdew, and J. Sun, J. Phys. Chem. Lett. 11, 9248 (2020)
Using LibXC functional ID 497 : Re-regularized SCAN exchange by Furness et al
[ 1]  J. W. Furness, A. D. Kaplan, J. Ning, J. P. Perdew, and J. Sun, J. Phys. Chem. Lett. 11, 8208 (2020)
[ 2]  J. W. Furness, A. D. Kaplan, J. Ning, J. P. Perdew, and J. Sun, J. Phys. Chem. Lett. 11, 9248 (2020)
Using LibXC functional ID 498 : Re-regularized SCAN correlation by Furness et al
[ 1]  J. W. Furness, A. D. Kaplan, J. Ning, J. P. Perdew, and J. Sun, J. Phys. Chem. Lett. 11, 8208 (2020)
[ 2]  J. W. Furness, A. D. Kaplan, J. Ning, J. P. Perdew, and J. Sun, J. Phys. Chem. Lett. 11, 9248 (2020)

WARNING: Geometry Optimization
  ===> : Switching off AutoStart
         For restart on a previous wavefunction, please use MOREAD

INFO   : the flag for use of the SHARK integral package has been found!


                       *****************************
                       * Geometry Optimization Run *
                       *****************************

Geometry optimization settings:
Update method            Update   .... BFGS
Choice of coordinates    CoordSys .... Z-matrix Internals
Initial Hessian          InHess   .... Almoef's Model

Convergence Tolerances:
Energy Change            TolE     ....  5.0000e-06 Eh
Max. Gradient            TolMAXG  ....  3.0000e-04 Eh/bohr
RMS Gradient             TolRMSG  ....  1.0000e-04 Eh/bohr
Max. Displacement        TolMAXD  ....  4.0000e-03 bohr
RMS Displacement         TolRMSD  ....  2.0000e-03 bohr
Strict Convergence                ....  False
------------------------------------------------------------------------------
                        ORCA OPTIMIZATION COORDINATE SETUP
------------------------------------------------------------------------------

The optimization will be done in new redundant internal coordinates
Making redundant internal coordinates   ...  (new redundants) done
Evaluating the initial hessian          ...  (Almloef) done
Evaluating the coordinates              ...  done
Calculating the B-matrix                .... done
Calculating the G-matrix                .... done
Diagonalizing the G-matrix              .... done
The first mode is                       ....   15
The number of degrees of freedom        ....   30

    -----------------------------------------------------------------
                    Redundant Internal Coordinates


    -----------------------------------------------------------------
         Definition                    Initial Value    Approx d2E/dq
    -----------------------------------------------------------------
      1. B(C   2,N   1)                  1.4548         0.441125   
      2. B(C   3,N   1)                  1.4473         0.453357   
      3. B(C   4,O   0)                  1.2153         1.063324   
      4. B(C   4,N   1)                  1.3544         0.637786   
      5. B(H   5,C   2)                  1.0929         0.356220   
      6. B(H   6,C   2)                  1.0887         0.361872   
      7. B(H   7,C   2)                  1.0901         0.359923   
      8. B(H   8,C   3)                  1.0944         0.354262   
      9. B(H   9,C   3)                  1.0898         0.360388   
     10. B(H  10,C   3)                  1.0937         0.355286   
     11. B(H  11,C   4)                  1.1053         0.340374   
     12. A(C   3,N   1,C   4)          121.9887         0.407225   
     13. A(C   2,N   1,C   3)          119.4049         0.381749   
     14. A(C   2,N   1,C   4)          118.5137         0.405261   
     15. A(N   1,C   2,H   5)          111.2555         0.330736   
     16. A(N   1,C   2,H   6)          109.0968         0.331599   
     17. A(H   6,C   2,H   7)          109.3127         0.291041   
     18. A(H   5,C   2,H   7)          107.8091         0.290323   
     19. A(N   1,C   2,H   7)          110.2724         0.331303   
     20. A(H   5,C   2,H   6)          109.0604         0.290569   
     21. A(N   1,C   3,H  10)          111.1743         0.332093   
     22. A(H   8,C   3,H   9)          108.2259         0.290131   
     23. A(N   1,C   3,H   9)          109.2984         0.332878   
     24. A(N   1,C   3,H   8)          111.4038         0.331934   
     25. A(H   8,C   3,H  10)          108.3376         0.289482   
     26. A(H   9,C   3,H  10)          108.3040         0.290262   
     27. A(N   1,C   4,H  11)          112.7313         0.349081   
     28. A(O   0,C   4,H  11)          122.6138         0.380980   
     29. A(O   0,C   4,N   1)          124.6548         0.474949   
     30. D(H   7,C   2,N   1,C   3)   -132.1524         0.016594   
     31. D(H   5,C   2,N   1,C   4)    -68.2933         0.016594   
     32. D(H   7,C   2,N   1,C   4)     51.2789         0.016594   
     33. D(H   6,C   2,N   1,C   3)    -12.0878         0.016594   
     34. D(H   6,C   2,N   1,C   4)    171.3434         0.016594   
     35. D(H   5,C   2,N   1,C   3)    108.2755         0.016594   
     36. D(H   8,C   3,N   1,C   2)    -59.9687         0.017537   
     37. D(H  10,C   3,N   1,C   4)   -122.5782         0.017537   
     38. D(H  10,C   3,N   1,C   2)     60.9768         0.017537   
     39. D(H   9,C   3,N   1,C   4)     -3.0739         0.017537   
     40. D(H   9,C   3,N   1,C   2)   -179.5189         0.017537   
     41. D(H   8,C   3,N   1,C   4)    116.4764         0.017537   
     42. D(H  11,C   4,N   1,C   2)    179.0388         0.033089   
     43. D(O   0,C   4,N   1,C   3)   -177.3343         0.033089   
     44. D(O   0,C   4,N   1,C   2)     -0.8588         0.033089   
     45. D(H  11,C   4,N   1,C   3)      2.5632         0.033089   
    -----------------------------------------------------------------

Number of atoms                         .... 12
Number of degrees of freedom            .... 45

         *************************************************************
         *                GEOMETRY OPTIMIZATION CYCLE   1            *
         *************************************************************
---------------------------------
CARTESIAN COORDINATES (ANGSTROEM)
---------------------------------
  O      1.781919    0.061167    0.617891
  N     -0.458507   -0.023540    0.222374
  C     -0.589011    1.423735    0.290771
  C     -1.641578   -0.835565    0.033520
  C      0.765790   -0.571854    0.409042
  H     -0.423534    1.788876    1.307544
  H     -1.590125    1.706637   -0.030049
  H      0.145753    1.900333   -0.358357
  H     -2.360255   -0.689310    0.845882
  H     -1.357275   -1.887450    0.015213
  H     -2.137503   -0.597303   -0.911673
  H      0.752325   -1.675728    0.353841

----------------------------
CARTESIAN COORDINATES (A.U.)
----------------------------
  NO LB      ZA    FRAG     MASS         X           Y           Z
   0 O     8.0000    0    15.999    3.367339    0.115589    1.167645
   1 N     7.0000    0    14.007   -0.866453   -0.044484    0.420226
   2 C     6.0000    0    12.011   -1.113069    2.690469    0.549478
   3 C     6.0000    0    12.011   -3.102133   -1.578989    0.063344
   4 C     6.0000    0    12.011    1.447133   -1.080647    0.772977
   5 H     1.0000    0     1.008   -0.800363    3.380486    2.470900
   6 H     1.0000    0     1.008   -3.004901    3.225077   -0.056784
   7 H     1.0000    0     1.008    0.275433    3.591109   -0.677197
   8 H     1.0000    0     1.008   -4.460236   -1.302607    1.598485
   9 H     1.0000    0     1.008   -2.564878   -3.566764    0.028748
  10 H     1.0000    0     1.008   -4.039295   -1.128739   -1.722812
  11 H     1.0000    0     1.008    1.421688   -3.166667    0.668663

--------------------------------
INTERNAL COORDINATES (ANGSTROEM)
--------------------------------
 O      0   0   0     0.000000000000     0.00000000     0.00000000
 N      1   0   0     2.276646137329     0.00000000     0.00000000
 C      2   1   0     1.454755776497    92.47008171     0.00000000
 C      2   1   3     1.447310410721   147.99121158   185.02319018
 C      1   2   3     1.215257847489    29.29907426   179.24468464
 H      3   2   1     1.092949184976   111.25545741   291.32928545
 H      3   2   1     1.088663517805   109.09675815   170.96595841
 H      3   2   1     1.090133454988   110.27237206    50.90143637
 H      4   2   1     1.094449256201   111.40379623   114.26834483
 H      4   2   1     1.089782269668   109.29841198   354.71806028
 H      4   2   1     1.093663656486   111.17431152   235.21377929
 H      5   1   2     1.105335362911   122.61382341   180.11217014

---------------------------
INTERNAL COORDINATES (A.U.)
---------------------------
 O      0   0   0     0.000000000000     0.00000000     0.00000000
 N      1   0   0     4.302237703401     0.00000000     0.00000000
 C      2   1   0     2.749090009318    92.47008171     0.00000000
 C      2   1   3     2.735020307036   147.99121158   185.02319018
 C      1   2   3     2.296504513852    29.29907426   179.24468464
 H      3   2   1     2.065374637896   111.25545741   291.32928545
 H      3   2   1     2.057275900643   109.09675815   170.96595841
 H      3   2   1     2.060053679353   110.27237206    50.90143637
 H      4   2   1     2.068209361693   111.40379623   114.26834483
 H      4   2   1     2.059390035276   109.29841198   354.71806028
 H      4   2   1     2.066724793381   111.17431152   235.21377929
 H      5   1   2     2.088781122041   122.61382341   180.11217014

---------------------
BASIS SET INFORMATION
---------------------
There are 4 groups of distinct atoms

 Group   1 Type O   : 11s6p2d contracted to 5s3p2d pattern {62111/411/11}
 Group   2 Type N   : 11s6p2d contracted to 5s3p2d pattern {62111/411/11}
 Group   3 Type C   : 11s6p1d contracted to 5s3p1d pattern {62111/411/1}
 Group   4 Type H   : 4s1p contracted to 2s1p pattern {31/1}

Atom   0O    basis set group =>   1
Atom   1N    basis set group =>   2
Atom   2C    basis set group =>   3
Atom   3C    basis set group =>   3
Atom   4C    basis set group =>   3
Atom   5H    basis set group =>   4
Atom   6H    basis set group =>   4
Atom   7H    basis set group =>   4
Atom   8H    basis set group =>   4
Atom   9H    basis set group =>   4
Atom  10H    basis set group =>   4
Atom  11H    basis set group =>   4
---------------------------------
AUXILIARY/J BASIS SET INFORMATION
---------------------------------
There are 4 groups of distinct atoms

 Group   1 Type O   : 8s3p3d contracted to 6s3p3d pattern {311111/111/111}
 Group   2 Type N   : 8s3p3d contracted to 6s3p3d pattern {311111/111/111}
 Group   3 Type C   : 8s3p3d contracted to 6s3p3d pattern {311111/111/111}
 Group   4 Type H   : 5s2p1d contracted to 3s1p1d pattern {311/2/1}

Atom   0O    basis set group =>   1
Atom   1N    basis set group =>   2
Atom   2C    basis set group =>   3
Atom   3C    basis set group =>   3
Atom   4C    basis set group =>   3
Atom   5H    basis set group =>   4
Atom   6H    basis set group =>   4
Atom   7H    basis set group =>   4
Atom   8H    basis set group =>   4
Atom   9H    basis set group =>   4
Atom  10H    basis set group =>   4
Atom  11H    basis set group =>   4


           ************************************************************
           *        Program running with 12 parallel MPI-processes    *
           *              working on a common directory               *
           ************************************************************
------------------------------------------------------------------------------
                           ORCA GTO INTEGRAL CALCULATION
                           -- RI-GTO INTEGRALS CHOSEN --
------------------------------------------------------------------------------
------------------------------------------------------------------------------
                   ___                                                        
                  /   \      - P O W E R E D   B Y -                         
                 /     \                                                     
                 |  |  |   _    _      __       _____    __    __             
                 |  |  |  | |  | |    /  \     |  _  \  |  |  /  |          
                  \  \/   | |  | |   /    \    | | | |  |  | /  /          
                 / \  \   | |__| |  /  /\  \   | |_| |  |  |/  /          
                |  |  |   |  __  | /  /__\  \  |    /   |      \           
                |  |  |   | |  | | |   __   |  |    \   |  |\   \          
                \     /   | |  | | |  |  |  |  | |\  \  |  | \   \       
                 \___/    |_|  |_| |__|  |__|  |_| \__\ |__|  \__/        
                                                                              
                      - O R C A' S   B I G   F R I E N D -                    
                                      &                                       
                       - I N T E G R A L  F E E D E R -                       
                                                                              
 v1 FN, 2020, v2 2021                                                         
------------------------------------------------------------------------------


Reading SHARK input file DMF_initial.SHARKINP.tmp ... ok
----------------------
SHARK INTEGRAL PACKAGE
----------------------

Number of atoms                             ...     12
Number of basis functions                   ...    140
Number of shells                            ...     68
Maximum angular momentum                    ...      2
Integral batch strategy                     ... SHARK/LIBINT Hybrid
RI-J (if used) integral strategy            ... SPLIT-RIJ (Revised 2003 algorithm where possible)
Printlevel                                  ...      1
Contraction scheme used                     ... SEGMENTED contraction
Coulomb Range Separation                    ... NOT USED
Exchange Range Separation                   ... NOT USED
Finite Nucleus Model                        ... NOT USED
Auxiliary Coulomb fitting basis             ... AVAILABLE
   # of basis functions in Aux-J            ...    227
   # of shells in Aux-J                     ...     95
   Maximum angular momentum in Aux-J        ...      2
Auxiliary J/K fitting basis                 ... NOT available
Auxiliary Correlation fitting basis         ... NOT available
Auxiliary 'external' fitting basis          ... NOT available
Integral threshold                          ...     2.500000e-11
Primitive cut-off                           ...     2.500000e-12
Primitive pair pre-selection threshold      ...     2.500000e-12

Calculating pre-screening integrals         ... done (  0.0 sec) Dimension = 68
Organizing shell pair data                  ... done (  0.0 sec)
Shell pair information
Total number of shell pairs                 ...      2346
Shell pairs after pre-screening             ...      2263
Total number of primitive shell pairs       ...      8259
Primitive shell pairs kept                  ...      6129
          la=0 lb=0:    738 shell pairs
          la=1 lb=0:    829 shell pairs
          la=1 lb=1:    248 shell pairs
          la=2 lb=0:    268 shell pairs
          la=2 lb=1:    152 shell pairs
          la=2 lb=2:     28 shell pairs

Calculating one electron integrals          ... done (  0.0 sec)
Calculating RI/J V-Matrix + Cholesky decomp.... done (  0.1 sec)
Calculating Nuclear repulsion               ... done (  0.0 sec) ENN=    181.960829363984 Eh

SHARK setup successfully completed in   0.4 seconds

Maximum memory used throughout the entire GTOINT-calculation: 9.8 MB


           ************************************************************
           *        Program running with 12 parallel MPI-processes    *
           *              working on a common directory               *
           ************************************************************
-------------------------------------------------------------------------------
                                 ORCA SCF
-------------------------------------------------------------------------------

------------
SCF SETTINGS
------------
Hamiltonian:
 Density Functional     Method          .... DFT(GTOs)
  Functional kind                       .... Exchange
  Functional name                       .... Re-regularized SCAN exchange by Furness et al
  Functional family                     .... MGGA
  Functional refs                              
    [ 0] J. W. Furness, A. D. Kaplan, J. Ning, J. P. Perdew, and J. Sun, J. Phys. Chem. Lett. 11, 8208 (2020)
    [ 1] J. W. Furness, A. D. Kaplan, J. Ning, J. P. Perdew, and J. Sun, J. Phys. Chem. Lett. 11, 9248 (2020)
  Functional external parameters         .... 8
 Parameter  0 :         c1 parameter
 Parameter  1 :         c2 parameter
 Parameter  2 :          d parameter
 Parameter  3 :         k1 parameter
 Parameter  4 :       taur parameter
 Parameter  5 :     alphar parameter
 Parameter  6 :        eta parameter
 Parameter  7 :        dp2 parameter
  Functional kind                       .... Correlation
  Functional name                       .... Re-regularized SCAN correlation by Furness et al
  Functional family                     .... MGGA
  Functional refs                              
    [ 0] J. W. Furness, A. D. Kaplan, J. Ning, J. P. Perdew, and J. Sun, J. Phys. Chem. Lett. 11, 8208 (2020)
    [ 1] J. W. Furness, A. D. Kaplan, J. Ning, J. P. Perdew, and J. Sun, J. Phys. Chem. Lett. 11, 9248 (2020)
  Functional external parameters         .... 0
 Gradients option       PostSCFGGA      .... off
   Density functional embedding theory  .... OFF
 RI-approximation to the Coulomb term is turned on
   Number of AuxJ basis functions       .... 227


General Settings:
 Integral files         IntName         .... DMF_initial
 Hartree-Fock type      HFTyp           .... RHF
 Total Charge           Charge          ....    0
 Multiplicity           Mult            ....    1
 Number of Electrons    NEL             ....   40
 Basis Dimension        Dim             ....  140
 Nuclear Repulsion      ENuc            ....    181.9608293640 Eh

Convergence Acceleration:
 DIIS                   CNVDIIS         .... on
   Start iteration      DIISMaxIt       ....    12
   Startup error        DIISStart       ....  0.200000
   # of expansion vecs  DIISMaxEq       ....     5
   Bias factor          DIISBfac        ....   1.050
   Max. coefficient     DIISMaxC        ....  10.000
 Trust-Rad. Augm. Hess. CNVTRAH         .... auto
   Auto Start mean grad. ratio tolernc. ....  1.125000
   Auto Start start iteration           ....    20
   Auto Start num. interpolation iter.  ....    10
   Max. Number of Micro iterations      ....    16
   Max. Number of Macro iterations      .... Maxiter - #DIIS iter
   Number of Davidson start vectors     ....     2
   Converg. threshold I  (grad. norm)   ....   1.000e-05
   Converg. threshold II (energy diff.) ....   1.000e-08
   Grad. Scal. Fac. for Micro threshold ....   0.100
   Minimum threshold for Micro iter.    ....   0.010
   NR start threshold (gradient norm)   ....   0.001
   Initial trust radius                 ....   0.400
   Minimum AH scaling param. (alpha)    ....   1.000
   Maximum AH scaling param. (alpha)    .... 1000.000
   Orbital update algorithm             .... Taylor
   White noise on init. David. guess    .... on
   Maximum white noise                  ....   0.010
   Quad. conv. algorithm                .... NR
   COSX micro iterations for RIJONX calc.... off
 SOSCF                  CNVSOSCF        .... on
   Start iteration      SOSCFMaxIt      ....   150
   Startup grad/error   SOSCFStart      ....  0.003300
 Level Shifting         CNVShift        .... on
   Level shift para.    LevelShift      ....    0.2500
   Turn off err/grad.   ShiftErr        ....    0.0010
 Zerner damping         CNVZerner       .... off
 Static damping         CNVDamp         .... on
   Fraction old density DampFac         ....    0.7000
   Max. Damping (<1)    DampMax         ....    0.9800
   Min. Damping (>=0)   DampMin         ....    0.0000
   Turn off err/grad.   DampErr         ....    0.1000
 Fernandez-Rico         CNVRico         .... off

SCF Procedure:
 Maximum # iterations   MaxIter         ....   125
 SCF integral mode      SCFMode         .... Direct
   Integral package                     .... SHARK and LIBINT hybrid scheme
 Reset frequency        DirectResetFreq ....    20
 Integral Threshold     Thresh          ....  2.500e-11 Eh
 Primitive CutOff       TCut            ....  2.500e-12 Eh

Convergence Tolerance:
 Convergence Check Mode ConvCheckMode   .... Total+1el-Energy
 Convergence forced     ConvForced      .... 0
 Energy Change          TolE            ....  1.000e-08 Eh
 1-El. energy change                    ....  1.000e-05 Eh
 Orbital Gradient       TolG            ....  1.000e-05
 Orbital Rotation angle TolX            ....  1.000e-05
 DIIS Error             TolErr          ....  5.000e-07


Diagonalization of the overlap matrix:
Smallest eigenvalue                        ... 6.552e-04
Time for diagonalization                   ...    0.044 sec
Threshold for overlap eigenvalues          ... 1.000e-08
Number of eigenvalues below threshold      ... 0
Time for construction of square roots      ...    0.013 sec
Total time needed                          ...    0.058 sec

Time for model grid setup =    0.130 sec

------------------------------
INITIAL GUESS: MODEL POTENTIAL
------------------------------
Loading Hartree-Fock densities                     ... done
Calculating cut-offs                               ... done
Initializing the effective Hamiltonian             ... done
Setting up the integral package (SHARK)            ... done
Starting the Coulomb interaction                   ... done (   0.1 sec)
Reading the grid                                   ... done
Mapping shells                                     ... done
Starting the XC term evaluation                    ... done (   0.0 sec)
  promolecular density results
     # of electrons  =     39.997006904
     EX              =    -32.095682943
     EC              =     -1.312724908
     EX+EC           =    -33.408407851
Transforming the Hamiltonian                       ... done (   0.0 sec)
Diagonalizing the Hamiltonian                      ... done (   0.0 sec)
Back transforming the eigenvectors                 ... done (   0.0 sec)
Now organizing SCF variables                       ... done
                      ------------------
                      INITIAL GUESS DONE (   0.3 sec)
                      ------------------
-------------------
DFT GRID GENERATION
-------------------

General Integration Accuracy     IntAcc      ... 4.388
Radial Grid Type                 RadialGrid  ... OptM3 with GC (2021)
Angular Grid (max. ang.)         AngularGrid ... 4 (Lebedev-302)
Angular grid pruning method      GridPruning ... 4 (adaptive)
Weight generation scheme         WeightScheme... Becke
Basis function cutoff            BFCut       ... 1.0000e-11
Integration weight cutoff        WCut        ... 1.0000e-14
Angular grids for H and He will be reduced by one unit
Partially contracted basis set               ... off
Rotationally invariant grid construction     ... off

Total number of grid points                  ...    53201
Total number of batches                      ...      837
Average number of points per batch           ...       63
Average number of grid points per atom       ...     4433
Time for grid setup =    0.257 sec

--------------
SCF ITERATIONS
--------------
ITER       Energy         Delta-E        Max-DP      RMS-DP      [F,P]     Damp
               ***  Starting incremental Fock matrix formation  ***
  0   -248.2917929081   0.000000000000 0.06611278  0.00213372  0.2947026 0.7000
  1   -248.3741181449  -0.082325236742 0.04631527  0.00139318  0.1002543 0.7000
                               ***Turning on DIIS***
  2   -248.4000545297  -0.025936384842 0.04628363  0.00183305  0.0327739 0.0000
  3   -248.4479809977  -0.047926467976 0.04520336  0.00112037  0.0415103 0.0000
  4   -248.4567111488  -0.008730151086 0.00788464  0.00031903  0.0237610 0.0000
                      *** Initiating the SOSCF procedure ***
                           *** Shutting down DIIS ***
                      *** Re-Reading the Fockian *** 
                      *** Removing any level shift *** 
ITER      Energy       Delta-E        Grad      Rot      Max-DP    RMS-DP
  5   -248.45797879  -0.0012676386  0.000712  0.000712  0.001979  0.000087
               *** Restarting incremental Fock matrix formation ***
  6   -248.45800280  -0.0000240114  0.000680  0.003164  0.002322  0.000071
  7   -248.45796305   0.0000397532  0.002190  0.002696  0.001733  0.000055
  8   -248.45801002  -0.0000469731  0.000181  0.000486  0.000349  0.000012
  9   -248.45800932   0.0000007029  0.000313  0.000315  0.000217  0.000008
 10   -248.45801033  -0.0000010184  0.000013  0.000025  0.000034  0.000001
 11   -248.45801033   0.0000000036  0.000017  0.000014  0.000021  0.000001
                  ***Gradient check signals convergence***
              ***Rediagonalizing the Fockian in SOSCF/NRSCF***

               *****************************************************
               *                     SUCCESS                       *
               *           SCF CONVERGED AFTER  12 CYCLES          *
               *****************************************************


----------------
TOTAL SCF ENERGY
----------------

Total Energy       :         -248.45801034 Eh           -6760.88618 eV

Components:
Nuclear Repulsion  :          181.96082936 Eh            4951.40589 eV
Electronic Energy  :         -430.41883970 Eh          -11712.29207 eV
One Electron Energy:         -696.75156955 Eh          -18959.57409 eV
Two Electron Energy:          266.33272985 Eh            7247.28202 eV

Virial components:
Potential Energy   :         -495.86529131 Eh          -13493.18056 eV
Kinetic Energy     :          247.40728097 Eh            6732.29438 eV
Virial Ratio       :            2.00424696


DFT components:
N(Alpha)           :       19.999975769007 electrons
N(Beta)            :       19.999975769007 electrons
N(Total)           :       39.999951538013 electrons
E(X)               :      -33.024732075333 Eh       
E(C)               :       -1.276123820662 Eh       
E(XC)              :      -34.300855895995 Eh       
DFET-embed. en.    :        0.000000000000 Eh       

---------------
SCF CONVERGENCE
---------------

  Last Energy change         ...   -8.8427e-09  Tolerance :   1.0000e-08
  Last MAX-Density change    ...    2.8878e-06  Tolerance :   1.0000e-07
  Last RMS-Density change    ...    1.3613e-07  Tolerance :   5.0000e-09
  Last Orbital Gradient      ...    8.9706e-07  Tolerance :   1.0000e-05
  Last Orbital Rotation      ...    1.9992e-06  Tolerance :   1.0000e-05

             **** THE GBW FILE WAS UPDATED (DMF_initial.gbw) ****
             **** DENSITY DMF_initial.scfp WAS UPDATED ****
             **** ENERGY FILE WAS UPDATED (DMF_initial.en.tmp) ****
             **** THE GBW FILE WAS UPDATED (DMF_initial.gbw) ****
             **** DENSITY DMF_initial.scfp WAS UPDATED ****
----------------
ORBITAL ENERGIES
----------------

  NO   OCC          E(Eh)            E(eV) 
   0   2.0000     -18.911911      -514.6193 
   1   2.0000     -14.200323      -386.4104 
   2   2.0000     -10.116781      -275.2916 
   3   2.0000     -10.079010      -274.2638 
   4   2.0000     -10.066706      -273.9290 
   5   2.0000      -0.997782       -27.1510 
   6   2.0000      -0.908710       -24.7273 
   7   2.0000      -0.705649       -19.2017 
   8   2.0000      -0.672326       -18.2949 
   9   2.0000      -0.541314       -14.7299 
  10   2.0000      -0.486013       -13.2251 
  11   2.0000      -0.448885       -12.2148 
  12   2.0000      -0.438517       -11.9327 
  13   2.0000      -0.385859       -10.4998 
  14   2.0000      -0.384765       -10.4700 
  15   2.0000      -0.370671       -10.0865 
  16   2.0000      -0.363690        -9.8965 
  17   2.0000      -0.343201        -9.3390 
  18   2.0000      -0.222009        -6.0412 
  19   2.0000      -0.218963        -5.9583 
  20   0.0000      -0.003921        -0.1067 
  21   0.0000       0.069904         1.9022 
  22   0.0000       0.094682         2.5764 
  23   0.0000       0.105232         2.8635 
  24   0.0000       0.117317         3.1924 
  25   0.0000       0.137146         3.7319 
  26   0.0000       0.145908         3.9704 
  27   0.0000       0.158262         4.3065 
  28   0.0000       0.160094         4.3564 
  29   0.0000       0.168525         4.5858 
  30   0.0000       0.199515         5.4291 
  31   0.0000       0.202156         5.5009 
  32   0.0000       0.225204         6.1281 
  33   0.0000       0.234123         6.3708 
  34   0.0000       0.250983         6.8296 
  35   0.0000       0.267558         7.2806 
  36   0.0000       0.273136         7.4324 
  37   0.0000       0.302617         8.2346 
  38   0.0000       0.316537         8.6134 
  39   0.0000       0.359810         9.7909 
  40   0.0000       0.403627        10.9832 
  41   0.0000       0.409022        11.1300 
  42   0.0000       0.428228        11.6527 
  43   0.0000       0.456236        12.4148 
  44   0.0000       0.497484        13.5372 
  45   0.0000       0.509080        13.8528 
  46   0.0000       0.528450        14.3799 
  47   0.0000       0.548708        14.9311 
  48   0.0000       0.583350        15.8738 
  49   0.0000       0.593110        16.1394 
  50   0.0000       0.598601        16.2887 
  51   0.0000       0.674572        18.3560 
  52   0.0000       0.683183        18.5903 
  53   0.0000       0.709583        19.3087 
  54   0.0000       0.729675        19.8555 
  55   0.0000       0.757924        20.6242 
  56   0.0000       0.780640        21.2423 
  57   0.0000       0.823247        22.4017 
  58   0.0000       0.834025        22.6950 
  59   0.0000       0.892232        24.2789 
  60   0.0000       0.951190        25.8832 
  61   0.0000       1.008443        27.4411 
  62   0.0000       1.020718        27.7752 
  63   0.0000       1.055266        28.7152 
  64   0.0000       1.100776        29.9537 
  65   0.0000       1.128817        30.7167 
  66   0.0000       1.135369        30.8950 
  67   0.0000       1.175955        31.9994 
  68   0.0000       1.234837        33.6016 
  69   0.0000       1.283766        34.9331 
  70   0.0000       1.300977        35.4014 
  71   0.0000       1.335012        36.3275 
  72   0.0000       1.354083        36.8465 
  73   0.0000       1.391693        37.8699 
  74   0.0000       1.405304        38.2403 
  75   0.0000       1.414434        38.4887 
  76   0.0000       1.486056        40.4376 
  77   0.0000       1.523698        41.4619 
  78   0.0000       1.626984        44.2725 
  79   0.0000       1.638127        44.5757 
  80   0.0000       1.683337        45.8059 
  81   0.0000       1.748049        47.5668 
  82   0.0000       1.821247        49.5587 
  83   0.0000       1.834974        49.9322 
  84   0.0000       1.848795        50.3083 
  85   0.0000       1.866722        50.7961 
  86   0.0000       1.894527        51.5527 
  87   0.0000       1.973101        53.6908 
  88   0.0000       1.999272        54.4030 
  89   0.0000       2.029126        55.2153 
  90   0.0000       2.101059        57.1727 
  91   0.0000       2.141431        58.2713 
  92   0.0000       2.157661        58.7129 
  93   0.0000       2.224260        60.5252 
  94   0.0000       2.267211        61.6939 
  95   0.0000       2.281729        62.0890 
  96   0.0000       2.306171        62.7541 
  97   0.0000       2.328034        63.3490 
  98   0.0000       2.334019        63.5119 
  99   0.0000       2.350882        63.9707 
 100   0.0000       2.397464        65.2383 
 101   0.0000       2.448772        66.6345 
 102   0.0000       2.466492        67.1167 
 103   0.0000       2.488419        67.7133 
 104   0.0000       2.554993        69.5249 
 105   0.0000       2.584167        70.3188 
 106   0.0000       2.650372        72.1203 
 107   0.0000       2.666493        72.5590 
 108   0.0000       2.677942        72.8705 
 109   0.0000       2.695859        73.3581 
 110   0.0000       2.714451        73.8640 
 111   0.0000       2.742226        74.6198 
 112   0.0000       2.748000        74.7769 
 113   0.0000       2.830539        77.0229 
 114   0.0000       2.867562        78.0303 
 115   0.0000       2.927560        79.6630 
 116   0.0000       2.945685        80.1562 
 117   0.0000       2.985835        81.2487 
 118   0.0000       3.014516        82.0292 
 119   0.0000       3.028870        82.4197 
 120   0.0000       3.134770        85.3014 
 121   0.0000       3.151813        85.7652 
 122   0.0000       3.185134        86.6719 
 123   0.0000       3.241934        88.2175 
 124   0.0000       3.320020        90.3423 
 125   0.0000       3.339134        90.8625 
 126   0.0000       3.515832        95.6707 
 127   0.0000       3.521440        95.8232 
 128   0.0000       3.537341        96.2559 
 129   0.0000       3.555265        96.7437 
 130   0.0000       3.663540        99.6900 
 131   0.0000       3.717703       101.1638 
 132   0.0000       3.879724       105.5726 
 133   0.0000       4.060505       110.4920 
 134   0.0000       4.438079       120.7663 
 135   0.0000      22.008218       598.8741 
 136   0.0000      22.022493       599.2625 
 137   0.0000      22.186735       603.7318 
 138   0.0000      31.869320       867.2083 
 139   0.0000      43.671813      1188.3705 
-------
TIMINGS
-------

Total SCF time: 0 days 0 hours 0 min 5 sec 

Total time                  ....       5.854 sec
Sum of individual times     ....       5.074 sec  ( 86.7%)

Fock matrix formation       ....       4.330 sec  ( 74.0%)
  Split-RI-J                ....       0.532 sec  ( 12.3% of F)
  XC integration            ....       3.160 sec  ( 73.0% of F)
    Basis function eval.    ....       0.211 sec  (  6.7% of XC)
    Density eval.           ....       0.319 sec  ( 10.1% of XC)
    XC-Functional eval.     ....       0.326 sec  ( 10.3% of XC)
    XC-Potential eval.      ....       0.483 sec  ( 15.3% of XC)
Diagonalization             ....       0.056 sec  (  0.9%)
Density matrix formation    ....       0.005 sec  (  0.1%)
Population analysis         ....       0.000 sec  (  0.0%)
Initial guess               ....       0.134 sec  (  2.3%)
Orbital Transformation      ....       0.000 sec  (  0.0%)
Orbital Orthonormalization  ....       0.000 sec  (  0.0%)
DIIS solution               ....       0.092 sec  (  1.6%)
SOSCF solution              ....       0.069 sec  (  1.2%)
Grid generation             ....       0.387 sec  (  6.6%)

Maximum memory used throughout the entire SCF-calculation: 15.1 MB


-------------------------------------------------------------------------------
                          DFT DISPERSION CORRECTION                            
                                                                               
                                 DFTD4 V2.5                                    
-------------------------------------------------------------------------------
The R2SCAN3C composite method is recognized
Using three-body term ABC
Active option DFTDOPT                   ...         5   

Starting D4
-------------------------   ----------------
Dispersion correction           -0.002510916
-------------------------   ----------------

------------------   -----------------
gCP correction             0.012902100
------------------   -----------------

-------------------------   --------------------
FINAL SINGLE POINT ENERGY      -248.447619154416
-------------------------   --------------------



           ************************************************************
           *        Program running with 12 parallel MPI-processes    *
           *              working on a common directory               *
           ************************************************************
------------------------------------------------------------------------------
                         ORCA SCF GRADIENT CALCULATION
------------------------------------------------------------------------------

Gradient of the Kohn-Sham DFT energy:
Kohn-Sham wavefunction type      ... RKS
Hartree-Fock exchange scaling    ...    0.000
Number of operators              ...    1
Number of atoms                  ...   12
Basis set dimensions             ...  140
Integral neglect threshold       ... 2.5e-11
Integral primitive cutoff        ... 2.5e-12
SHARK Integral package           ... ON

Nuc. rep. gradient       (SHARK) ... done (  0.0 sec)
HCore & Overlap gradient (SHARK) ... done (  0.1 sec)
RI-J gradient            (SHARK) ... done (  0.3 sec)
Exchange-correlation gradient    ... done
Dispersion correction            ... Starting D4
Starting D4
Starting D4
Starting D4
Starting D4
Starting D4
Starting D4
Starting D4
Starting D4
Starting D4
Starting D4
Starting D4


------------------- 
Dispersion Gradient 
------------------- 
   1  :    0.000066455   -0.000002319    0.000010216
   2  :   -0.000001239   -0.000002305   -0.000000809
   3  :   -0.000005680    0.000047403    0.000001312
   4  :   -0.000043712   -0.000031993   -0.000007947
   5  :    0.000039368   -0.000019979    0.000004973
   6  :    0.000001864    0.000023906    0.000012370
   7  :   -0.000015356    0.000022212   -0.000003606
   8  :    0.000009191    0.000023201   -0.000005640
   9  :   -0.000026410   -0.000010732    0.000005915
  10  :   -0.000013765   -0.000025056   -0.000003465
  11  :   -0.000023866   -0.000009677   -0.000014311
  12  :    0.000019945   -0.000018142    0.000002149

  |G| =    0.000576489

done
gCP correction                   ... done

------------------
CARTESIAN GRADIENT
------------------

   1   O   :   -0.006579063   -0.005158685   -0.001044287
   2   N   :   -0.000002450    0.000401239    0.000653684
   3   C   :    0.000610512   -0.000146499    0.000053363
   4   C   :    0.000086069   -0.000832952   -0.000438677
   5   C   :    0.002908662    0.003129124   -0.000118686
   6   H   :   -0.000351257   -0.000835668   -0.002588995
   7   H   :    0.002598700   -0.000704042    0.000999090
   8   H   :   -0.002276174   -0.001139666    0.001400616
   9   H   :    0.001798161   -0.000257994   -0.002061842
  10   H   :   -0.000537109    0.002665805    0.000094976
  11   H   :    0.001216608   -0.000486922    0.002433016
  12   H   :    0.000534136    0.003362779    0.000618900

Difference to translation invariance:
           :    0.0000067959   -0.0000034807    0.0000011563

Difference to rotation invariance:
           :    0.0000263094    0.0000447101   -0.0000434769

Norm of the cartesian gradient     ...    0.0122439077
RMS gradient                       ...    0.0020406513
MAX gradient                       ...    0.0065790635

-------
TIMINGS
-------

Total SCF gradient time            ...        1.049 sec

One electron gradient       ....       0.086 sec  (  8.2%)
RI-J Coulomb gradient       ....       0.349 sec  ( 33.3%)
XC gradient                 ....       0.233 sec  ( 22.2%)

Maximum memory used throughout the entire SCFGRAD-calculation: 25.7 MB
------------------------------------------------------------------------------
                         ORCA GEOMETRY RELAXATION STEP
------------------------------------------------------------------------------

Reading the OPT-File                    .... done
Getting information on internals        .... done
Copying old internal coords+grads       .... done
Making the new internal coordinates     .... (new redundants).... done
Validating the new internal coordinates .... (new redundants).... done
Calculating the B-matrix                .... done
Calculating the G,G- and P matrices     .... done
Transforming gradient to internals      .... done
Projecting the internal gradient        .... done
Number of atoms                         ....  12
Number of internal coordinates          ....  45
Current Energy                          ....  -248.447619154 Eh
Current gradient norm                   ....     0.012243908 Eh/bohr
Maximum allowed component of the step   ....  0.300
Current trust radius                    ....  0.300
Evaluating the initial hessian          ....  (Almloef) done
Projecting the Hessian                  .... done
Forming the augmented Hessian           .... done
Diagonalizing the augmented Hessian     .... done
Last element of RFO vector              ....  0.998948303
Lowest eigenvalues of augmented Hessian:
 -0.000324329  0.016610700  0.017536835  0.021225122  0.033089180
Length of the computed step             ....  0.045898981
The final length of the internal step   ....  0.045898981
Converting the step to cartesian space:
 Initial RMS(Int)=    0.0068422161
Transforming coordinates:
 Iter   0:  RMS(Cart)=    0.0101200932 RMS(Int)=    0.0068381958
 Iter   1:  RMS(Cart)=    0.0000641552 RMS(Int)=    0.0000522993
 Iter   2:  RMS(Cart)=    0.0000006739 RMS(Int)=    0.0000005477
 Iter   3:  RMS(Cart)=    0.0000000087 RMS(Int)=    0.0000000067
done
Storing new coordinates                 .... done

                                .--------------------.
          ----------------------|Geometry convergence|-------------------------
          Item                value                   Tolerance       Converged
          ---------------------------------------------------------------------
          RMS gradient        0.0018863973            0.0001000000      NO
          MAX gradient        0.0083670506            0.0003000000      NO
          RMS step            0.0068422161            0.0020000000      NO
          MAX step            0.0147564069            0.0040000000      NO
          ........................................................
          Max(Bonds)      0.0053      Max(Angles)    0.16
          Max(Dihed)        0.85      Max(Improp)    0.00
          ---------------------------------------------------------------------

The optimization has not yet converged - more geometry cycles are needed


    ---------------------------------------------------------------------------
                         Redundant Internal Coordinates
                            (Angstroem and degrees)

        Definition                    Value    dE/dq     Step     New-Value
    ----------------------------------------------------------------------------
     1. B(C   2,N   1)                1.4548 -0.002868  0.0034    1.4582   
     2. B(C   3,N   1)                1.4473 -0.002709  0.0032    1.4505   
     3. B(C   4,O   0)                1.2153 -0.008367  0.0042    1.2194   
     4. B(C   4,N   1)                1.3544 -0.003452  0.0029    1.3573   
     5. B(H   5,C   2)                1.0929 -0.002742  0.0041    1.0970   
     6. B(H   6,C   2)                1.0887 -0.002865  0.0042    1.0928   
     7. B(H   7,C   2)                1.0901 -0.002867  0.0042    1.0943   
     8. B(H   8,C   3)                1.0944 -0.002746  0.0041    1.0985   
     9. B(H   9,C   3)                1.0898 -0.002714  0.0040    1.0938   
    10. B(H  10,C   3)                1.0937 -0.002760  0.0041    1.0978   
    11. B(H  11,C   4)                1.1053 -0.003397  0.0053    1.1106   
    12. A(C   3,N   1,C   4)          121.99 -0.000905    0.13    122.12   
    13. A(C   2,N   1,C   3)          119.40  0.000725   -0.11    119.30   
    14. A(C   2,N   1,C   4)          118.51  0.000182   -0.03    118.49   
    15. A(N   1,C   2,H   5)          111.26  0.000123   -0.03    111.22   
    16. A(N   1,C   2,H   6)          109.10 -0.000045    0.02    109.12   
    17. A(H   6,C   2,H   7)          109.31 -0.000202    0.06    109.37   
    18. A(H   5,C   2,H   7)          107.81  0.000019   -0.04    107.77   
    19. A(N   1,C   2,H   7)          110.27  0.000194   -0.04    110.23   
    20. A(H   5,C   2,H   6)          109.06 -0.000098    0.03    109.09   
    21. A(N   1,C   3,H  10)          111.17 -0.000018    0.01    111.18   
    22. A(H   8,C   3,H   9)          108.23  0.000146   -0.03    108.20   
    23. A(N   1,C   3,H   9)          109.30 -0.000214    0.03    109.33   
    24. A(N   1,C   3,H   8)          111.40 -0.000052    0.01    111.42   
    25. A(H   8,C   3,H  10)          108.34 -0.000016    0.01    108.35   
    26. A(H   9,C   3,H  10)          108.30  0.000166   -0.04    108.26   
    27. A(N   1,C   4,H  11)          112.73  0.000082   -0.02    112.71   
    28. A(O   0,C   4,H  11)          122.61 -0.001094    0.16    122.77   
    29. A(O   0,C   4,N   1)          124.65  0.001011   -0.13    124.53   
    30. D(H   7,C   2,N   1,C   3)   -132.15  0.000353   -0.85   -133.00   
    31. D(H   5,C   2,N   1,C   4)    -68.29  0.000116   -0.66    -68.95   
    32. D(H   7,C   2,N   1,C   4)     51.28  0.000347   -0.75     50.53   
    33. D(H   6,C   2,N   1,C   3)    -12.09  0.000195   -0.78    -12.87   
    34. D(H   6,C   2,N   1,C   4)    171.34  0.000189   -0.69    170.66   
    35. D(H   5,C   2,N   1,C   3)    108.28  0.000122   -0.75    107.52   
    36. D(H   8,C   3,N   1,C   2)    -59.97  0.000003    0.04    -59.93   
    37. D(H  10,C   3,N   1,C   4)   -122.58 -0.000017   -0.04   -122.61   
    38. D(H  10,C   3,N   1,C   2)     60.98 -0.000065    0.07     61.04   
    39. D(H   9,C   3,N   1,C   4)     -3.07  0.000041   -0.06     -3.13   
    40. D(H   9,C   3,N   1,C   2)   -179.52 -0.000007    0.04   -179.48   
    41. D(H   8,C   3,N   1,C   4)    116.48  0.000051   -0.07    116.41   
    42. D(H  11,C   4,N   1,C   2)    179.04 -0.000314    0.54    179.58   
    43. D(O   0,C   4,N   1,C   3)   -177.33  0.000303   -0.52   -177.86   
    44. D(O   0,C   4,N   1,C   2)     -0.86  0.000370   -0.63     -1.49   
    45. D(H  11,C   4,N   1,C   3)      2.56 -0.000380    0.65      3.21   
    ----------------------------------------------------------------------------

         *************************************************************
         *                GEOMETRY OPTIMIZATION CYCLE   2            *
         *************************************************************
---------------------------------
CARTESIAN COORDINATES (ANGSTROEM)
---------------------------------
  O      1.788791    0.065940    0.610807
  N     -0.457702   -0.024827    0.223376
  C     -0.589185    1.425849    0.291080
  C     -1.644641   -0.837083    0.035555
  C      0.769499   -0.573135    0.411776
  H     -0.435451    1.791219    1.313978
  H     -1.589833    1.710561   -0.043530
  H      0.157737    1.903893   -0.350146
  H     -2.365496   -0.688642    0.851117
  H     -1.361462   -1.893409    0.018039
  H     -2.142389   -0.598552   -0.913366
  H      0.758132   -1.681816    0.347315

----------------------------
CARTESIAN COORDINATES (A.U.)
----------------------------
  NO LB      ZA    FRAG     MASS         X           Y           Z
   0 O     8.0000    0    15.999    3.380325    0.124608    1.154258
   1 N     7.0000    0    14.007   -0.864931   -0.046915    0.422119
   2 C     6.0000    0    12.011   -1.113399    2.694463    0.550062
   3 C     6.0000    0    12.011   -3.107922   -1.581858    0.067189
   4 C     6.0000    0    12.011    1.454142   -1.083068    0.778143
   5 H     1.0000    0     1.008   -0.822883    3.384914    2.483058
   6 H     1.0000    0     1.008   -3.004349    3.232491   -0.082261
   7 H     1.0000    0     1.008    0.298079    3.597837   -0.661680
   8 H     1.0000    0     1.008   -4.470139   -1.301345    1.608377
   9 H     1.0000    0     1.008   -2.572791   -3.578024    0.034088
  10 H     1.0000    0     1.008   -4.048528   -1.131099   -1.726012
  11 H     1.0000    0     1.008    1.432662   -3.178172    0.656330

--------------------------------
INTERNAL COORDINATES (ANGSTROEM)
--------------------------------
 O      0   0   0     0.000000000000     0.00000000     0.00000000
 N      1   0   0     2.281462514733     0.00000000     0.00000000
 C      2   1   0     1.458194066159    92.36829758     0.00000000
 C      2   1   3     1.450470023429   148.21595055   184.75226340
 C      1   2   3     1.219420552697    29.35050783   178.69152797
 H      3   2   1     1.097018568731   111.22292272   290.39270590
 H      3   2   1     1.092849978202   109.11858118   169.99964888
 H      3   2   1     1.094344480569   110.23254748    49.87036230
 H      4   2   1     1.098547790451   111.41775435   114.62012299
 H      4   2   1     1.093764300252   109.33171227   355.07589313
 H      4   2   1     1.097770880245   111.17936863   235.59655388
 H      5   1   2     1.110611645510   122.76522537   178.82654166

---------------------------
INTERNAL COORDINATES (A.U.)
---------------------------
 O      0   0   0     0.000000000000     0.00000000     0.00000000
 N      1   0   0     4.311339337652     0.00000000     0.00000000
 C      2   1   0     2.755587435150    92.36829758     0.00000000
 C      2   1   3     2.740991109743   148.21595055   184.75226340
 C      1   2   3     2.304370886673    29.35050783   178.69152797
 H      3   2   1     2.073064658728   111.22292272   290.39270590
 H      3   2   1     2.065187164263   109.11858118   169.99964888
 H      3   2   1     2.068011364444   110.23254748    49.87036230
 H      4   2   1     2.075954468976   111.41775435   114.62012299
 H      4   2   1     2.066914982536   109.33171227   355.07589313
 H      4   2   1     2.074486321456   111.17936863   235.59655388
 H      5   1   2     2.098751851157   122.76522537   178.82654166



           ************************************************************
           *        Program running with 12 parallel MPI-processes    *
           *              working on a common directory               *
           ************************************************************
------------------------------------------------------------------------------
                   ___                                                        
                  /   \      - P O W E R E D   B Y -                         
                 /     \                                                     
                 |  |  |   _    _      __       _____    __    __             
                 |  |  |  | |  | |    /  \     |  _  \  |  |  /  |          
                  \  \/   | |  | |   /    \    | | | |  |  | /  /          
                 / \  \   | |__| |  /  /\  \   | |_| |  |  |/  /          
                |  |  |   |  __  | /  /__\  \  |    /   |      \           
                |  |  |   | |  | | |   __   |  |    \   |  |\   \          
                \     /   | |  | | |  |  |  |  | |\  \  |  | \   \       
                 \___/    |_|  |_| |__|  |__|  |_| \__\ |__|  \__/        
                                                                              
                      - O R C A' S   B I G   F R I E N D -                    
                                      &                                       
                       - I N T E G R A L  F E E D E R -                       
                                                                              
 v1 FN, 2020, v2 2021                                                         
------------------------------------------------------------------------------


Reading SHARK input file DMF_initial.SHARKINP.tmp ... ok
----------------------
SHARK INTEGRAL PACKAGE
----------------------

Number of atoms                             ...     12
Number of basis functions                   ...    140
Number of shells                            ...     68
Maximum angular momentum                    ...      2
Integral batch strategy                     ... SHARK/LIBINT Hybrid
RI-J (if used) integral strategy            ... SPLIT-RIJ (Revised 2003 algorithm where possible)
Printlevel                                  ...      1
Contraction scheme used                     ... SEGMENTED contraction
Coulomb Range Separation                    ... NOT USED
Exchange Range Separation                   ... NOT USED
Finite Nucleus Model                        ... NOT USED
Auxiliary Coulomb fitting basis             ... AVAILABLE
   # of basis functions in Aux-J            ...    227
   # of shells in Aux-J                     ...     95
   Maximum angular momentum in Aux-J        ...      2
Auxiliary J/K fitting basis                 ... NOT available
Auxiliary Correlation fitting basis         ... NOT available
Auxiliary 'external' fitting basis          ... NOT available
Integral threshold                          ...     2.500000e-11
Primitive cut-off                           ...     2.500000e-12
Primitive pair pre-selection threshold      ...     2.500000e-12

Calculating pre-screening integrals         ... done (  0.0 sec) Dimension = 68
Organizing shell pair data                  ... done (  0.0 sec)
Shell pair information
Total number of shell pairs                 ...      2346
Shell pairs after pre-screening             ...      2263
Total number of primitive shell pairs       ...      8259
Primitive shell pairs kept                  ...      6130
          la=0 lb=0:    738 shell pairs
          la=1 lb=0:    829 shell pairs
          la=1 lb=1:    248 shell pairs
          la=2 lb=0:    268 shell pairs
          la=2 lb=1:    152 shell pairs
          la=2 lb=2:     28 shell pairs

Calculating one electron integrals          ... done (  0.0 sec)
Calculating RI/J V-Matrix + Cholesky decomp.... done (  0.0 sec)
Calculating Nuclear repulsion               ... done (  0.0 sec) ENN=    181.484907119811 Eh

SHARK setup successfully completed in   0.3 seconds

Maximum memory used throughout the entire GTOINT-calculation: 9.8 MB


           ************************************************************
           *        Program running with 12 parallel MPI-processes    *
           *              working on a common directory               *
           ************************************************************

Diagonalization of the overlap matrix:
Smallest eigenvalue                        ... 6.680e-04
Time for diagonalization                   ...    0.005 sec
Threshold for overlap eigenvalues          ... 1.000e-08
Number of eigenvalues below threshold      ... 0
Time for construction of square roots      ...    0.010 sec
Total time needed                          ...    0.015 sec

-------------------
DFT GRID GENERATION
-------------------

General Integration Accuracy     IntAcc      ... 4.388
Radial Grid Type                 RadialGrid  ... OptM3 with GC (2021)
Angular Grid (max. ang.)         AngularGrid ... 4 (Lebedev-302)
Angular grid pruning method      GridPruning ... 4 (adaptive)
Weight generation scheme         WeightScheme... Becke
Basis function cutoff            BFCut       ... 1.0000e-11
Integration weight cutoff        WCut        ... 1.0000e-14
Angular grids for H and He will be reduced by one unit
Partially contracted basis set               ... off
Rotationally invariant grid construction     ... off

Total number of grid points                  ...    53212
Total number of batches                      ...      838
Average number of points per batch           ...       63
Average number of grid points per atom       ...     4434
Time for grid setup =    0.270 sec

--------------
SCF ITERATIONS
--------------
ITER       Energy         Delta-E        Max-DP      RMS-DP      [F,P]     Damp
               ***  Starting incremental Fock matrix formation  ***
                      *** Initiating the SOSCF procedure ***
                      *** Re-Reading the Fockian *** 
                      *** Removing any level shift *** 
ITER      Energy       Delta-E        Grad      Rot      Max-DP    RMS-DP
  0   -248.45791732 -248.4579173223  0.001355  0.001355  0.002328  0.000107
               *** Restarting incremental Fock matrix formation ***
  1   -248.45803536  -0.0001180374  0.000368  0.001030  0.000791  0.000049
  2   -248.45803892  -0.0000035601  0.000367  0.000955  0.000588  0.000026
  3   -248.45804201  -0.0000030907  0.000400  0.000850  0.000726  0.000026
  4   -248.45804194   0.0000000666  0.000230  0.000261  0.000488  0.000016
  5   -248.45804406  -0.0000021187  0.000057  0.000135  0.000105  0.000005
  6   -248.45804407  -0.0000000112  0.000083  0.000112  0.000080  0.000002
  7   -248.45804415  -0.0000000784  0.000022  0.000033  0.000025  0.000001
  8   -248.45804416  -0.0000000046  0.000005  0.000012  0.000009  0.000001
                  ***Gradient check signals convergence***
              ***Rediagonalizing the Fockian in SOSCF/NRSCF***

               *****************************************************
               *                     SUCCESS                       *
               *           SCF CONVERGED AFTER   9 CYCLES          *
               *****************************************************

Total Energy       :         -248.45804416 Eh           -6760.88710 eV
  Last Energy change         ...   -2.2663e-09  Tolerance :   1.0000e-08
  Last MAX-Density change    ...    4.5726e-06  Tolerance :   1.0000e-07
             **** THE GBW FILE WAS UPDATED (DMF_initial.gbw) ****
             **** DENSITY DMF_initial.scfp WAS UPDATED ****
             **** ENERGY FILE WAS UPDATED (DMF_initial.en.tmp) ****
             **** THE GBW FILE WAS UPDATED (DMF_initial.gbw) ****
             **** DENSITY DMF_initial.scfp WAS UPDATED ****
Total SCF time: 0 days 0 hours 0 min 3 sec 

Maximum memory used throughout the entire SCF-calculation: 15.2 MB


-------------------------------------------------------------------------------
                          DFT DISPERSION CORRECTION                            
                                                                               
                                 DFTD4 V2.5                                    
-------------------------------------------------------------------------------
Starting D4
-------------------------   ----------------
Dispersion correction           -0.002507642
-------------------------   ----------------

------------------   -----------------
gCP correction             0.012759383
------------------   -----------------

-------------------------   --------------------
FINAL SINGLE POINT ENERGY      -248.447792418359
-------------------------   --------------------



           ************************************************************
           *        Program running with 12 parallel MPI-processes    *
           *              working on a common directory               *
           ************************************************************
------------------------------------------------------------------------------
                         ORCA SCF GRADIENT CALCULATION
------------------------------------------------------------------------------

Gradient of the Kohn-Sham DFT energy:
Kohn-Sham wavefunction type      ... RKS
Hartree-Fock exchange scaling    ...    0.000
Number of operators              ...    1
Number of atoms                  ...   12
Basis set dimensions             ...  140
Integral neglect threshold       ... 2.5e-11
Integral primitive cutoff        ... 2.5e-12
SHARK Integral package           ... ON

Nuc. rep. gradient       (SHARK) ... done (  0.0 sec)
HCore & Overlap gradient (SHARK) ... done (  0.0 sec)
RI-J gradient            (SHARK) ... done (  0.1 sec)
Exchange-correlation gradient    ... done
Dispersion correction            ... Starting D4
Starting D4
Starting D4
Starting D4
Starting D4
Starting D4
Starting D4
Starting D4
Starting D4
Starting D4
Starting D4
Starting D4


------------------- 
Dispersion Gradient 
------------------- 
   1  :    0.000066552   -0.000002195    0.000009953
   2  :   -0.000001130   -0.000002375   -0.000000793
   3  :   -0.000005716    0.000047676    0.000001347
   4  :   -0.000044109   -0.000032137   -0.000007922
   5  :    0.000039416   -0.000019912    0.000005037
   6  :    0.000001654    0.000024149    0.000012716
   7  :   -0.000015559    0.000022396   -0.000003830
   8  :    0.000009487    0.000023307   -0.000005662
   9  :   -0.000026685   -0.000010732    0.000006186
  10  :   -0.000013783   -0.000025365   -0.000003426
  11  :   -0.000024105   -0.000009676   -0.000014580
  12  :    0.000020026   -0.000018232    0.000002076

  |G| =    0.000579901

done
gCP correction                   ... done

------------------
CARTESIAN GRADIENT
------------------

   1   O   :   -0.000686935   -0.001097519   -0.000785343
   2   N   :   -0.000351134    0.000369752    0.000061314
   3   C   :    0.000425122   -0.000827377    0.000045910
   4   C   :    0.000490099   -0.000143518   -0.000527347
   5   C   :   -0.000021831    0.001208580    0.001721845
   6   H   :    0.000146669    0.000044121   -0.000156426
   7   H   :    0.000065412    0.000133226    0.000192481
   8   H   :   -0.000353941    0.000243653   -0.000212062
   9   H   :    0.000013732    0.000007104   -0.000096640
  10   H   :   -0.000025243    0.000120113    0.000018983
  11   H   :   -0.000102177   -0.000053677    0.000104797
  12   H   :    0.000406275   -0.000007555   -0.000366411

Difference to translation invariance:
           :    0.0000060471   -0.0000030961    0.0000011010

Difference to rotation invariance:
           :    0.0000202964    0.0000608372   -0.0000593432

Norm of the cartesian gradient     ...    0.0030123794
RMS gradient                       ...    0.0005020632
MAX gradient                       ...    0.0017218453

-------
TIMINGS
-------

Total SCF gradient time            ...        0.489 sec

One electron gradient       ....       0.018 sec  (  3.7%)
RI-J Coulomb gradient       ....       0.083 sec  ( 17.0%)
XC gradient                 ....       0.201 sec  ( 41.0%)

Maximum memory used throughout the entire SCFGRAD-calculation: 25.7 MB
------------------------------------------------------------------------------
                         ORCA GEOMETRY RELAXATION STEP
------------------------------------------------------------------------------

Reading the OPT-File                    .... done
Getting information on internals        .... done
Copying old internal coords+grads       .... done
Making the new internal coordinates     .... (new redundants).... done
Validating the new internal coordinates .... (new redundants).... done
Calculating the B-matrix                .... done
Calculating the G,G- and P matrices     .... done
Transforming gradient to internals      .... done
Projecting the internal gradient        .... done
Number of atoms                         ....  12
Number of internal coordinates          ....  45
Current Energy                          ....  -248.447792418 Eh
Current gradient norm                   ....     0.003012379 Eh/bohr
Maximum allowed component of the step   ....  0.300
Current trust radius                    ....  0.300
Updating the Hessian (BFGS)             .... done
Forming the augmented Hessian           .... done
Diagonalizing the augmented Hessian     .... done
Last element of RFO vector              ....  0.998646711
Lowest eigenvalues of augmented Hessian:
 -0.000064463  0.014757164  0.017536833  0.021180119  0.033056991
Length of the computed step             ....  0.052077660
The final length of the internal step   ....  0.052077660
Converting the step to cartesian space:
 Initial RMS(Int)=    0.0077632792
Transforming coordinates:
 Iter   0:  RMS(Cart)=    0.0087232839 RMS(Int)=    0.0077555893
 Iter   1:  RMS(Cart)=    0.0000647052 RMS(Int)=    0.0000501175
 Iter   2:  RMS(Cart)=    0.0000005866 RMS(Int)=    0.0000004292
 Iter   3:  RMS(Cart)=    0.0000000068 RMS(Int)=    0.0000000057
done
Storing new coordinates                 .... done

                                .--------------------.
          ----------------------|Geometry convergence|-------------------------
          Item                value                   Tolerance       Converged
          ---------------------------------------------------------------------
          Energy change      -0.0001732639            0.0000050000      NO
          RMS gradient        0.0003239871            0.0001000000      NO
          MAX gradient        0.0012766965            0.0003000000      NO
          RMS step            0.0077632792            0.0020000000      NO
          MAX step            0.0197976471            0.0040000000      NO
          ........................................................
          Max(Bonds)      0.0015      Max(Angles)    0.13
          Max(Dihed)        1.13      Max(Improp)    0.00
          ---------------------------------------------------------------------

The optimization has not yet converged - more geometry cycles are needed


    ---------------------------------------------------------------------------
                         Redundant Internal Coordinates
                            (Angstroem and degrees)

        Definition                    Value    dE/dq     Step     New-Value
    ----------------------------------------------------------------------------
     1. B(C   2,N   1)                1.4582 -0.000434  0.0012    1.4594   
     2. B(C   3,N   1)                1.4505 -0.000204  0.0009    1.4513   
     3. B(C   4,O   0)                1.2194 -0.001277  0.0015    1.2209   
     4. B(C   4,N   1)                1.3573 -0.000238  0.0008    1.3580   
     5. B(H   5,C   2)                1.0970 -0.000111  0.0010    1.0980   
     6. B(H   6,C   2)                1.0928 -0.000082  0.0009    1.0938   
     7. B(H   7,C   2)                1.0943 -0.000012  0.0008    1.0952   
     8. B(H   8,C   3)                1.0985 -0.000081  0.0009    1.0995   
     9. B(H   9,C   3)                1.0938 -0.000122  0.0010    1.0947   
    10. B(H  10,C   3)                1.0978 -0.000055  0.0009    1.0987   
    11. B(H  11,C   4)                1.1106  0.000023  0.0010    1.1116   
    12. A(C   3,N   1,C   4)          122.12 -0.000392    0.08    122.20   
    13. A(C   2,N   1,C   3)          119.30  0.000415   -0.09    119.21   
    14. A(C   2,N   1,C   4)          118.49 -0.000019   -0.00    118.48   
    15. A(N   1,C   2,H   5)          111.22  0.000024   -0.02    111.21   
    16. A(N   1,C   2,H   6)          109.12  0.000131   -0.01    109.10   
    17. A(H   6,C   2,H   7)          109.37 -0.000312    0.09    109.46   
    18. A(H   5,C   2,H   7)          107.77 -0.000113   -0.00    107.77   
    19. A(N   1,C   2,H   7)          110.23  0.000378   -0.08    110.15   
    20. A(H   5,C   2,H   6)          109.09 -0.000122    0.04    109.13   
    21. A(N   1,C   3,H  10)          111.18  0.000186   -0.04    111.14   
    22. A(H   8,C   3,H   9)          108.20 -0.000001   -0.00    108.19   
    23. A(N   1,C   3,H   9)          109.33 -0.000037    0.01    109.34   
    24. A(N   1,C   3,H   8)          111.42 -0.000002    0.01    111.42   
    25. A(H   8,C   3,H  10)          108.35 -0.000121    0.03    108.38   
    26. A(H   9,C   3,H  10)          108.26 -0.000030   -0.01    108.25   
    27. A(N   1,C   4,H  11)          112.70  0.000060   -0.02    112.68   
    28. A(O   0,C   4,H  11)          122.77 -0.000647    0.13    122.89   
    29. A(O   0,C   4,N   1)          124.52  0.000570   -0.11    124.42   
    30. D(H   7,C   2,N   1,C   3)   -133.00  0.000320   -1.13   -134.13   
    31. D(H   5,C   2,N   1,C   4)    -68.95  0.000142   -0.84    -69.80   
[...]
Auxiliary Coulomb fitting basis             ... NOT available
Auxiliary J/K fitting basis                 ... NOT available
Auxiliary Correlation fitting basis         ... NOT available
Auxiliary 'external' fitting basis          ... NOT available
Integral threshold                          ...     1.000000e-10
Primitive cut-off                           ...     1.000000e-11
Primitive pair pre-selection threshold      ...     1.000000e-11

Calculating pre-screening integrals         ... done (  0.0 sec) Dimension = 44
Organizing shell pair data                  ... done (  0.0 sec)
Shell pair information
Total number of shell pairs                 ...       990
Shell pairs after pre-screening             ...       973
Total number of primitive shell pairs       ...      5482
Primitive shell pairs kept                  ...      3899
          la=0 lb=0:    421 shell pairs
          la=1 lb=0:    289 shell pairs
          la=1 lb=1:     55 shell pairs
          la=2 lb=0:    143 shell pairs
          la=2 lb=1:     50 shell pairs
          la=2 lb=2:     15 shell pairs

Calculating one electron integrals          ... done (  0.0 sec)
Calculating Nuclear repulsion               ... done (  0.0 sec) ENN=    181.804282309996 Eh

SHARK setup successfully completed in   0.2 seconds

Maximum memory used throughout the entire GTOINT-calculation: 8.6 MB


           ************************************************************
           *        Program running with 12 parallel MPI-processes    *
           *              working on a common directory               *
           ************************************************************
-------------------------------------------------------------------------------
                                 ORCA SCF
-------------------------------------------------------------------------------

------------
SCF SETTINGS
------------
Hamiltonian:
 Ab initio Hamiltonian  Method          .... Hartree-Fock(GTOs)


General Settings:
 Integral files         IntName         .... DMF_charge
 Hartree-Fock type      HFTyp           .... RHF
 Total Charge           Charge          ....    0
 Multiplicity           Mult            ....    1
 Number of Electrons    NEL             ....   40
 Basis Dimension        Dim             ....   84
 Nuclear Repulsion      ENuc            ....    181.8042823100 Eh

Convergence Acceleration:
 DIIS                   CNVDIIS         .... on
   Start iteration      DIISMaxIt       ....    12
   Startup error        DIISStart       ....  0.200000
   # of expansion vecs  DIISMaxEq       ....     5
   Bias factor          DIISBfac        ....   1.050
   Max. coefficient     DIISMaxC        ....  10.000
 Trust-Rad. Augm. Hess. CNVTRAH         .... auto
   Auto Start mean grad. ratio tolernc. ....  1.125000
   Auto Start start iteration           ....     1
   Auto Start num. interpolation iter.  ....    10
   Max. Number of Micro iterations      ....    16
   Max. Number of Macro iterations      .... Maxiter - #DIIS iter
   Number of Davidson start vectors     ....     2
   Converg. threshold I  (grad. norm)   ....   5.000e-05
   Converg. threshold II (energy diff.) ....   1.000e-06
   Grad. Scal. Fac. for Micro threshold ....   0.100
   Minimum threshold for Micro iter.    ....   0.010
   NR start threshold (gradient norm)   ....   0.001
   Initial trust radius                 ....   0.400
   Minimum AH scaling param. (alpha)    ....   1.000
   Maximum AH scaling param. (alpha)    .... 1000.000
   Orbital update algorithm             .... Taylor
   White noise on init. David. guess    .... on
   Maximum white noise                  ....   0.010
   Quad. conv. algorithm                .... NR
 SOSCF                  CNVSOSCF        .... on
   Start iteration      SOSCFMaxIt      ....   150
   Startup grad/error   SOSCFStart      ....  0.003300
 Level Shifting         CNVShift        .... on
   Level shift para.    LevelShift      ....    0.2500
   Turn off err/grad.   ShiftErr        ....    0.0010
 Zerner damping         CNVZerner       .... off
 Static damping         CNVDamp         .... on
   Fraction old density DampFac         ....    0.7000
   Max. Damping (<1)    DampMax         ....    0.9800
   Min. Damping (>=0)   DampMin         ....    0.0000
   Turn off err/grad.   DampErr         ....    0.1000
 Fernandez-Rico         CNVRico         .... off

SCF Procedure:
 Maximum # iterations   MaxIter         ....   125
 SCF integral mode      SCFMode         .... Direct
   Integral package                     .... SHARK and LIBINT hybrid scheme
 Reset frequency        DirectResetFreq ....    20
 Integral Threshold     Thresh          ....  1.000e-10 Eh
 Primitive CutOff       TCut            ....  1.000e-11 Eh

Convergence Tolerance:
 Convergence Check Mode ConvCheckMode   .... Total+1el-Energy
 Convergence forced     ConvForced      .... 0
 Energy Change          TolE            ....  1.000e-06 Eh
 1-El. energy change                    ....  1.000e-03 Eh
 Orbital Gradient       TolG            ....  5.000e-05
 Orbital Rotation angle TolX            ....  5.000e-05
 DIIS Error             TolErr          ....  1.000e-06


Diagonalization of the overlap matrix:
Smallest eigenvalue                        ... 6.804e-03
Time for diagonalization                   ...    0.002 sec
Threshold for overlap eigenvalues          ... 1.000e-08
Number of eigenvalues below threshold      ... 0
Time for construction of square roots      ...    0.007 sec
Total time needed                          ...    0.009 sec

---------------------
INITIAL GUESS: MOREAD
---------------------
Guess MOs are being read from file: DMF_nbo.gbw
Input Geometry matches current geometry (good)
Atom 0: N(Shells)= 6 and 11 - projection required
Input basis set needs projection
NBasis(read)= 197
NBasis(calc)= 84
Basis set overlap was calculated
Using GuessMode=FMatrix for the initial guess
C*T matrix was formed
Effective Fockian was calculated
Effective Fockian was diagonalized
Initial density was built
                      ------------------
                      INITIAL GUESS DONE (   0.0 sec)
                      ------------------
Hirshfeld charges requested but no grid available - making one
-------------------
DFT GRID GENERATION
-------------------

General Integration Accuracy     IntAcc      ... 4.388
Radial Grid Type                 RadialGrid  ... OptM3 with GC (2021)
Angular Grid (max. ang.)         AngularGrid ... 4 (Lebedev-302)
Angular grid pruning method      GridPruning ... 4 (adaptive)
Weight generation scheme         WeightScheme... Becke
Basis function cutoff            BFCut       ... 1.0000e-10
Integration weight cutoff        WCut        ... 1.0000e-14
Angular grids for H and He will be reduced by one unit
Partially contracted basis set               ... off
Rotationally invariant grid construction     ... off

Total number of grid points                  ...    52883
Total number of batches                      ...      833
Average number of points per batch           ...       63
Average number of grid points per atom       ...     4407
Time for grid setup =    0.244 sec

--------------
SCF ITERATIONS
--------------
ITER       Energy         Delta-E        Max-DP      RMS-DP      [F,P]     Damp
               ***  Starting incremental Fock matrix formation  ***
  0   -246.9585148493   0.000000000000 0.02563612  0.00132058  0.0627678 0.7000
  1   -246.9664052060  -0.007890356644 0.02221270  0.00113912  0.0483161 0.7000
                               ***Turning on DIIS***
  2   -246.9723131649  -0.005907958909 0.05726869  0.00294843  0.0357257 0.0000
  3   -247.0184875695  -0.046174404594 0.01116958  0.00072471  0.0100850 0.0000
  4   -246.9991326436   0.019354925920 0.00651229  0.00025787  0.0056408 0.0000
                      *** Initiating the SOSCF procedure ***
                           *** Shutting down DIIS ***
                      *** Re-Reading the Fockian *** 
                      *** Removing any level shift *** 
ITER      Energy       Delta-E        Grad      Rot      Max-DP    RMS-DP
  5   -246.98514624   0.0139864076  0.001872  0.001872  0.002696  0.000134
               *** Restarting incremental Fock matrix formation ***
  6   -246.98849459  -0.0033483547  0.000760  0.001040  0.001277  0.000063
  7   -246.98850174  -0.0000071481  0.000441  0.001496  0.001307  0.000060
  8   -246.98850388  -0.0000021397  0.000126  0.000220  0.000299  0.000012
                 **** Energy Check signals convergence ****
              ***Rediagonalizing the Fockian in SOSCF/NRSCF***

               *****************************************************
               *                     SUCCESS                       *
               *           SCF CONVERGED AFTER   9 CYCLES          *
               *****************************************************


----------------
TOTAL SCF ENERGY
----------------

Total Energy       :         -246.98850414 Eh           -6720.89888 eV

Components:
Nuclear Repulsion  :          181.80428231 Eh            4947.14603 eV
Electronic Energy  :         -428.79278645 Eh          -11668.04491 eV
One Electron Energy:         -695.73723117 Eh          -18931.97254 eV
Two Electron Energy:          266.94444473 Eh            7263.92763 eV

Virial components:
Potential Energy   :         -493.72574521 Eh          -13434.96055 eV
Kinetic Energy     :          246.73724107 Eh            6714.06167 eV
Virial Ratio       :            2.00101834


---------------
SCF CONVERGENCE
---------------

  Last Energy change         ...   -2.5663e-07  Tolerance :   1.0000e-06
  Last MAX-Density change    ...    6.3947e-05  Tolerance :   1.0000e-05
  Last RMS-Density change    ...    2.5534e-06  Tolerance :   1.0000e-06
  Last Orbital Gradient      ...    3.3273e-05  Tolerance :   5.0000e-05
  Last Orbital Rotation      ...    4.4916e-05  Tolerance :   5.0000e-05

             **** THE GBW FILE WAS UPDATED (DMF_charge.gbw) ****
             **** DENSITY DMF_charge.scfp WAS UPDATED ****
             **** ENERGY FILE WAS UPDATED (DMF_charge.en.tmp) ****
             **** THE GBW FILE WAS UPDATED (DMF_charge.gbw) ****
             **** DENSITY DMF_charge.scfp WAS UPDATED ****
----------------
ORBITAL ENERGIES
----------------

  NO   OCC          E(Eh)            E(eV) 
   0   2.0000     -20.522862      -558.4555 
   1   2.0000     -15.593892      -424.3314 
   2   2.0000     -11.346361      -308.7502 
   3   2.0000     -11.273173      -306.7586 
   4   2.0000     -11.256352      -306.3009 
   5   2.0000      -1.376926       -37.4681 
   6   2.0000      -1.253089       -34.0983 
   7   2.0000      -0.985941       -26.8288 
   8   2.0000      -0.948730       -25.8162 
   9   2.0000      -0.780021       -21.2255 
  10   2.0000      -0.702313       -19.1109 
  11   2.0000      -0.657271       -17.8853 
  12   2.0000      -0.651227       -17.7208 
  13   2.0000      -0.581239       -15.8163 
  14   2.0000      -0.567758       -15.4495 
  15   2.0000      -0.566773       -15.4227 
  16   2.0000      -0.540082       -14.6964 
  17   2.0000      -0.527145       -14.3444 
  18   2.0000      -0.421670       -11.4742 
  19   2.0000      -0.371495       -10.1089 
  20   0.0000       0.203987         5.5508 
  21   0.0000       0.223311         6.0766 
  22   0.0000       0.261269         7.1095 
  23   0.0000       0.287081         7.8119 
  24   0.0000       0.302497         8.2314 
  25   0.0000       0.304416         8.2836 
  26   0.0000       0.327872         8.9218 
  27   0.0000       0.328581         8.9411 
  28   0.0000       0.361303         9.8315 
  29   0.0000       0.414588        11.2815 
  30   0.0000       0.459915        12.5149 
  31   0.0000       0.562778        15.3140 
  32   0.0000       0.683477        18.5984 
  33   0.0000       0.693847        18.8805 
  34   0.0000       0.748274        20.3616 
  35   0.0000       0.769081        20.9278 
  36   0.0000       0.786053        21.3896 
  37   0.0000       0.867718        23.6118 
  38   0.0000       0.884567        24.0703 
  39   0.0000       0.938429        25.5360 
  40   0.0000       0.988073        26.8868 
  41   0.0000       1.030267        28.0350 
  42   0.0000       1.068283        29.0695 
  43   0.0000       1.088995        29.6330 
  44   0.0000       1.110479        30.2177 
  45   0.0000       1.135972        30.9114 
  46   0.0000       1.141986        31.0750 
  47   0.0000       1.161055        31.5939 
  48   0.0000       1.174227        31.9523 
  49   0.0000       1.204024        32.7632 
  50   0.0000       1.235906        33.6307 
  51   0.0000       1.254163        34.1275 
  52   0.0000       1.327939        36.1351 
  53   0.0000       1.335920        36.3522 
  54   0.0000       1.432451        38.9790 
  55   0.0000       1.575638        42.8753 
  56   0.0000       1.587363        43.1943 
  57   0.0000       1.660867        45.1945 
  58   0.0000       1.679547        45.7028 
  59   0.0000       1.680004        45.7152 
  60   0.0000       1.835915        49.9578 
  61   0.0000       1.965831        53.4930 
  62   0.0000       2.082989        56.6810 
  63   0.0000       2.087624        56.8071 
  64   0.0000       2.146049        58.3970 
  65   0.0000       2.228532        60.6414 
  66   0.0000       2.249789        61.2199 
  67   0.0000       2.288247        62.2664 
  68   0.0000       2.318349        63.0855 
  69   0.0000       2.364925        64.3529 
  70   0.0000       2.417417        65.7813 
  71   0.0000       2.447099        66.5889 
  72   0.0000       2.522469        68.6399 
  73   0.0000       2.589671        70.4685 
  74   0.0000       2.656158        72.2777 
  75   0.0000       2.662100        72.4394 
  76   0.0000       2.747437        74.7616 
  77   0.0000       2.796425        76.0946 
  78   0.0000       2.911282        79.2200 
  79   0.0000       2.961190        80.5781 
  80   0.0000       3.019850        82.1743 
  81   0.0000       3.229803        87.8874 
  82   0.0000       3.335323        90.7587 
  83   0.0000       3.511698        95.5582 

------------------
HIRSHFELD ANALYSIS
------------------

Total integrated alpha density =     20.000000998
Total integrated beta density  =     20.000000998

  ATOM     CHARGE      SPIN    
   0 O   -0.373735    0.000000
   1 N   -0.104978    0.000000
   2 C    0.016938    0.000000
   3 C    0.019042    0.000000
   4 C    0.223612    0.000000
   5 H    0.023817    0.000000
   6 H    0.023827    0.000000
   7 H    0.043412    0.000000
   8 H    0.026132    0.000000
   9 H    0.035089    0.000000
  10 H    0.026115    0.000000
  11 H    0.040728    0.000000

  TOTAL  -0.000002    0.000000

-------
TIMINGS
-------

Total SCF time: 0 days 0 hours 0 min 1 sec 

Total time                  ....       1.841 sec
Sum of individual times     ....       1.400 sec  ( 76.0%)

Fock matrix formation       ....       0.976 sec  ( 53.0%)
Diagonalization             ....       0.019 sec  (  1.0%)
Density matrix formation    ....       0.001 sec  (  0.1%)
Population analysis         ....       0.072 sec  (  3.9%)
Initial guess               ....       0.018 sec  (  1.0%)
Orbital Transformation      ....       0.000 sec  (  0.0%)
Orbital Orthonormalization  ....       0.000 sec  (  0.0%)
DIIS solution               ....       0.056 sec  (  3.0%)
SOSCF solution              ....       0.014 sec  (  0.7%)

Maximum memory used throughout the entire SCF-calculation: 225.3 MB

-------------------------   --------------------
FINAL SINGLE POINT ENERGY      -246.988504135122
-------------------------   --------------------


                            ***************************************
                            *     ORCA property calculations      *
                            ***************************************

                                    ---------------------
                                    Active property flags
                                    ---------------------
   (+) Dipole Moment


------------------------------------------------------------------------------
                       ORCA ELECTRIC PROPERTIES CALCULATION
------------------------------------------------------------------------------

Dipole Moment Calculation                       ... on
Quadrupole Moment Calculation                   ... off
Polarizability Calculation                      ... off
GBWName                                         ... DMF_charge.gbw
Electron density                                ... DMF_charge.scfp
The origin for moment calculation is the CENTER OF MASS  = (-0.033569,  0.032943  0.460939)

-------------
DIPOLE MOMENT
-------------
                                X             Y             Z
Electronic contribution:      4.88303      -0.77150       0.07261
Nuclear contribution   :     -6.47956       0.40306      -0.12142
                        -----------------------------------------
Total Dipole Moment    :     -1.59653      -0.36845      -0.04881
                        -----------------------------------------
Magnitude (a.u.)       :      1.63922
Magnitude (Debye)      :      4.16657



--------------------
Rotational spectrum 
--------------------
 
Rotational constants in cm-1:     0.298251     0.140031     0.098834 
Rotational constants in MHz :  8941.338768  4198.025092  2962.960757 

 Dipole components along the rotational axes: 
x,y,z [a.u.] :    -1.611298     0.301271     0.001869 
x,y,z [Debye]:    -4.095594     0.765770     0.004749 

 
------------------------------------------------------------------------------
                      ORCA CHELPG CHARGES GENERATION
------------------------------------------------------------------------------

GBW file                           ... DMF_charge.gbw
Density                            ... DMF_charge.scfp

Reading the GBW file               ... done
Reading the density                ... done

Grid spacing                       ...     0.300000
Point Cut-Off                      ...     2.800000
Van-der-Waals Radii                ...        COSMO
Total charge                       ...            0


Number of points X direction       ...           32
Number of points Y direction       ...           31
Number of points Z direction       ...           24
Maximum number of possible points  ...        23808
Final number of points             ...         8818


CHELPG Charges            
--------------------------------
  0   O   :      -0.547726
  1   N   :       0.032630
  2   C   :      -0.270947
  3   C   :      -0.430027
  4   C   :       0.363847
  5   H   :       0.101472
  6   H   :       0.100931
  7   H   :       0.146811
  8   H   :       0.146975
  9   H   :       0.141357
 10   H   :       0.147130
 11   H   :       0.067548
--------------------------------
Total charge:    -0.000000
--------------------------------

CHELPG charges calculated...

Timings for individual parts in CHELPG calculation:
Grid generation                 ...        0.003 sec (=   0.000 min)
Potential calculation           ...        0.706 sec (=   0.012 min)
Fit to the potential            ...        0.048 sec (=   0.001 min)
------------------------------------------------------------------------------


Timings for individual modules:

Sum of individual times         ...        3.770 sec (=   0.063 min)
GTO integral calculation        ...        0.477 sec (=   0.008 min)  12.7 %
SCF iterations                  ...        2.125 sec (=   0.035 min)  56.4 %
CHELPG charge generation        ...        1.168 sec (=   0.019 min)  31.0 %
================================================================================

----- Orbital basis set information -----
Your calculation utilizes the basis: def2-SVP
   F. Weigend and R. Ahlrichs, Phys. Chem. Chem. Phys. 7, 3297 (2005).

                             ****ORCA TERMINATED NORMALLY****
TOTAL RUN TIME: 0 days 0 hours 3 minutes 47 seconds 55 msec
